<LesHouchesEvents version="3.0">
<header>
<!--
#*********************************************************************
#                                                                    *
#                        MadGraph5_aMC@NLO                           *
#                                                                    *
#                           Going Beyond                             *
#                                                                    *
#                   http://madgraph.hep.uiuc.edu                     *
#                   http://madgraph.phys.ucl.ac.be                   *
#                   http://amcatnlo.cern.ch                          *
#                                                                    *
#                     The MadGraph5_aMC@NLO team                     *
#                                                                    *
#....................................................................*
#                                                                    *
# This file contains all the information necessary to reproduce      *
# the events generated:                                              *
#                                                                    *
# 1. software version                                                *
# 2. proc_card          : code generation info including model       *
# 3. param_card         : model primary parameters in the LH format  *
# 4. run_card           : running parameters (collider and cuts)     *
# 5. pythia_card        : present only if pythia has been run        *
# 6. pgs_card           : present only if pgs has been run           *
# 7. delphes_cards      : present only if delphes has been run       *
#                                                                    *
#                                                                    *
#*********************************************************************
-->
<MGVersion>
3.5.5
</MGVersion>
<MG5ProcCard>
<![CDATA[
#************************************************************
#*                     MadGraph5_aMC@NLO                    *
#*                                                          *
#*                *                       *                 *
#*                  *        * *        *                   *
#*                    * * * * 5 * * * *                     *
#*                  *        * *        *                   *
#*                *                       *                 *
#*                                                          *
#*                                                          *
#*         VERSION 3.5.5                 2024-06-17         *
#*                                                          *
#*    The MadGraph5_aMC@NLO Development Team - Find us at   *
#*    https://server06.fynu.ucl.ac.be/projects/madgraph     *
#*                                                          *
#************************************************************
#*                                                          *
#*               Command File for MadGraph5_aMC@NLO         *
#*                                                          *
#*     run as ./bin/mg5_aMC  filename                       *
#*                                                          *
#************************************************************
set group_subprocesses Auto
set ignore_six_quark_processes False
set low_mem_multicore_nlo_generation False
set complex_mass_scheme False
set include_lepton_initiated_processes False
set gauge unitary
set loop_optimized_output True
set loop_color_flows False
set max_npoint_for_channel 0
set default_unset_couplings 99
set max_t_for_channel 99
set zerowidth_tchannel True
set nlo_mixed_expansion True
import model sm
define l+ = e+ mu+
define l- = e- mu-
define vl = ve vm vt
define vl~ = ve~ vm~ vt~
define p = g u c d s u~ c~ d~ s~
define j = g u c d s u~ c~ d~ s~
define vv = ve ve~
define ell = e+ e-
define q = u c d s u~ c~ d~ s~
set automatic_html_opening False
import model SM_HeavyN_CKM_AllMasses_LO
generate p p > w+, w+ > e+ n1
add process p p > w-, w- > e- n1
output HNL_2000evt_CCDY_eev_1
]]>
</MG5ProcCard>
<MGProcCard>
#*********************************************************************
#                        MadGraph/MadEvent                           *
#                   http://madgraph.hep.uiuc.edu                     *
#                                                                    *
#                          proc_card.dat                             *
#*********************************************************************
#                                                                    *
#            This Files is generated by MADGRAPH 5                   *
#                                                                    *
# WARNING: This Files is generated for MADEVENT (compatibility issue)*
#          This files is NOT a valid MG4 proc_card.dat               *
#          Running this in MG4 will NEVER reproduce the result of MG5*
#                                                                    *
#*********************************************************************
#*********************************************************************
# Process(es) requested : mg2 input                                  *
#*********************************************************************
# Begin PROCESS # This is TAG. Do not modify this line
p p > w+ , w+ > e+ n1           #Process
# Be carefull the coupling are here in MG5 convention
          
end_coup           # End the couplings input

done               # this tells MG there are no more procs
# End PROCESS  # This is TAG. Do not modify this line
#*********************************************************************
# Model information                                                  *
#*********************************************************************
# Begin MODEL  # This is TAG. Do not modify this line
SM_HeavyN_CKM_AllMasses_LO
# End   MODEL  # This is TAG. Do not modify this line
#*********************************************************************
# Start multiparticle definitions                                    *
#*********************************************************************
# Begin MULTIPARTICLES # This is TAG. Do not modify this line

# End  MULTIPARTICLES # This is TAG. Do not modify this line
</MGProcCard>
<MGRunCard>
<![CDATA[
#*********************************************************************
#                       MadGraph5_aMC@NLO                            *
#                                                                    *
#                     run_card.dat MadEvent                          *
#                                                                    *
#  This file is used to set the parameters of the run.               *
#                                                                    *
#  Some notation/conventions:                                        *
#                                                                    *
#   Lines starting with a '# ' are info or comments                  *
#                                                                    *
#   mind the format:   value    = variable     ! comment             *
#                                                                    *
#   To display more options, you can type the command:               *
#      update to_full                                                *
#*********************************************************************
#                                                                    
#*********************************************************************
# Tag name for the run (one word)                                    *
#*********************************************************************
  tag_1	= run_tag ! name of the run 
#*********************************************************************
# Number of events and rnd seed                                      *
# Warning: Do not generate more than 1M events in a single run       *
#*********************************************************************
  100	= nevents ! Number of unweighted events requested 
#  10 = nevt_job 
 2000 = iseed ! rnd seed (0=assigned automatically=default))
#*********************************************************************
# Collider type and energy                                           *
# lpp: 0=No PDF, 1=proton, -1=antiproton,                            *
#                2=elastic photon of proton/ion beam                 *
#             +/-3=PDF of electron/positron beam                     *
#             +/-4=PDF of muon/antimuon beam                         *
#*********************************************************************
  1	= lpp1 ! beam 1 type 
  1	= lpp2 ! beam 2 type
  7000.0	= ebeam1 ! beam 1 total energy in GeV
  7000.0	= ebeam2 ! beam 2 total energy in GeV
# To see polarised beam options: type "update beam_pol"

#*********************************************************************
# PDF CHOICE: this automatically fixes alpha_s and its evol.         *
# pdlabel: lhapdf=LHAPDF (installation needed) [1412.7420]           *
#          iww=Improved Weizsaecker-Williams Approx.[hep-ph/9310350] *
#          eva=Effective W/Z/A Approx.       [2111.02442]            *
#          edff=EDFF in gamma-UPC            [eq.(11) in 2207.03012] *
#          chff=ChFF in gamma-UPC            [eq.(13) in 2207.03012] *
#          none=No PDF, same as lhapdf with lppx=0                   *
#*********************************************************************
  nn23lo1	= pdlabel ! PDF set 
  230000	= lhaid ! if pdlabel=lhapdf, this is the lhapdf number
# To see heavy ion options: type "update ion_pdf"
#*********************************************************************
# Renormalization and factorization scales                           *
#*********************************************************************
  False	= fixed_ren_scale ! if .true. use fixed ren scale
  False	= fixed_fac_scale ! if .true. use fixed fac scale
  91.188	= scale ! fixed ren scale
  91.188	= dsqrt_q2fact1 ! fixed fact scale for pdf1
  91.188	= dsqrt_q2fact2 ! fixed fact scale for pdf2
  -1	= dynamical_scale_choice ! Choose one of the preselected dynamical choices
  1.0	= scalefact ! scale factor for event-by-event scales

 
#*********************************************************************
# Type and output format
#*********************************************************************
  False	= gridpack !True = setting up the grid pack
  0.0	= time_of_flight ! threshold (in mm) below which the invariant livetime is not written (-1 means not written)
  average	= event_norm ! average/sum. Normalization of the weight in the LHEF
# To see MLM/CKKW  merging options: type "update MLM" or "update CKKW"

#*********************************************************************
#
#*********************************************************************
# Phase-Space Optimization strategy (basic options)
#*********************************************************************
  0	= nhel ! using helicities importance sampling or not.
                             ! 0: sum over helicity, 1: importance sampling
  2	= sde_strategy ! default integration strategy (hep-ph/2021.00773)
                             ! 1 is old strategy (using amp square)
			     ! 2 is new strategy (using only the denominator)
# To see advanced option for Phase-Space optimization: type "update psoptim"			     
#*********************************************************************
# Customization (custom cuts/scale/bias/...)                         *
# list of files containing fortran function that overwrite default   *
#*********************************************************************
  	= custom_fcts ! List of files containing user hook function
#*******************************                                                 
# Parton level cuts definition *
#*******************************
  0.0	= dsqrt_shat ! minimal shat for full process
#                                                                    
#
#*********************************************************************
# BW cutoff (M+/-bwcutoff*Gamma) ! Define on/off-shell for "$" and decay  
#*********************************************************************
  15.0	= bwcutoff ! (M+/-bwcutoff*Gamma)
 #*********************************************************************
 # Apply pt/E/eta/dr/mij/kt_durham cuts on decay products or not
 # (note that etmiss/ptll/ptheavy/ht/sorted cuts always apply)
 #*********************************************************************
  False	= cut_decays ! Cut decay products 
#*********************************************************************
# Standard Cuts                                                      *
#*********************************************************************
# Minimum and maximum pt's (for max, -1 means no cut)                *
#*********************************************************************
  20.0	= ptj ! minimum pt for the jets 
  10.0	= ptl ! minimum pt for the charged leptons 
  0.0	= misset ! minimum missing Et (sum of neutrino's momenta)
  -1.0	= ptjmax ! maximum pt for the jets
  -1.0	= ptlmax ! maximum pt for the charged leptons
  -1.0	= missetmax ! maximum missing Et (sum of neutrino's momenta)
  {}	= pt_min_pdg ! pt cut for other particles (use pdg code). Applied on particle and anti-particle
  {}	= pt_max_pdg ! pt cut for other particles (syntax e.g. {6: 100, 25: 50}) 
#
# For display option for energy cut in the partonic center of mass frame type 'update ecut'
#
#*********************************************************************
# Maximum and minimum absolute rapidity (for max, -1 means no cut)   *
#*********************************************************************
  5.0	= etaj ! max rap for the jets 
  2.5	= etal ! max rap for the charged leptons 
  0.0	= etalmin ! main rap for the charged leptons
  {}	= eta_min_pdg ! rap cut for other particles (use pdg code). Applied on particle and anti-particle
  {}	= eta_max_pdg ! rap cut for other particles (syntax e.g. {6: 2.5, 23: 5})
#*********************************************************************
# Minimum and maximum DeltaR distance                                *
#*********************************************************************
  0.4	= drjj ! min distance between jets 
  0.4	= drll ! min distance between leptons 
  0.4	= drjl ! min distance between jet and lepton 
  -1.0	= drjjmax ! max distance between jets
  -1.0	= drllmax ! max distance between leptons
  -1.0	= drjlmax ! max distance between jet and lepton
#*********************************************************************
# Minimum and maximum invariant mass for pairs                       *
#*********************************************************************
  0.0	= mmjj ! min invariant mass of a jet pair 
  0.0	= mmll ! min invariant mass of l+l- (same flavour) lepton pair
  -1.0	= mmjjmax ! max invariant mass of a jet pair
  -1.0	= mmllmax ! max invariant mass of l+l- (same flavour) lepton pair
  {}	= mxx_min_pdg ! min invariant mass of a pair of particles X/X~ (e.g. {6:250})
  {'default': False}	= mxx_only_part_antipart ! if True the invariant mass is applied only 
                       ! to pairs of particle/antiparticle and not to pairs of the same pdg codes.  
 #*********************************************************************
 # Minimum and maximum invariant mass for all letpons                 *
 #*********************************************************************
  0.0	= mmnl ! min invariant mass for all letpons (l+- and vl) 
  -1.0	= mmnlmax ! max invariant mass for all letpons (l+- and vl) 
 #*********************************************************************
 # Minimum and maximum pt for 4-momenta sum of leptons / neutrino     *
 #  for pair of lepton includes only same flavor, opposite charge
 #*********************************************************************
  0.0	= ptllmin ! Minimum pt for 4-momenta sum of leptons(l and vl)
  -1.0	= ptllmax ! Maximum pt for 4-momenta sum of leptons(l and vl)
#*********************************************************************
# Inclusive cuts                                                     *
#*********************************************************************
  0.0	= xptj ! minimum pt for at least one jet  
  0.0	= xptl ! minimum pt for at least one charged lepton 
 #*********************************************************************
 # Control the pt's of the jets sorted by pt                          *
 #*********************************************************************
  0.0	= ptj1min ! minimum pt for the leading jet in pt
  0.0	= ptj2min ! minimum pt for the second jet in pt
  -1.0	= ptj1max ! maximum pt for the leading jet in pt 
  -1.0	= ptj2max ! maximum pt for the second jet in pt
  0	= cutuse ! reject event if fails any (0) / all (1) jet pt cuts
 #*********************************************************************
 # Control the pt's of leptons sorted by pt                           *
 #*********************************************************************
  0.0	= ptl1min ! minimum pt for the leading lepton in pt
  0.0	= ptl2min ! minimum pt for the second lepton in pt
  0.0	= ptl3min ! minimum pt for the third lepton in pt
  -1.0	= ptl1max ! maximum pt for the leading lepton in pt 
  -1.0	= ptl2max ! maximum pt for the second lepton in pt
  -1.0	= ptl3max ! maximum pt for the third lepton in pt
 #*********************************************************************
 # Control the Ht(k)=Sum of k leading jets                            *
 #*********************************************************************
  0.0	= htjmin ! minimum jet HT=Sum(jet pt)
  -1.0	= htjmax ! maximum jet HT=Sum(jet pt)
  0.0	= ihtmin !inclusive Ht for all partons (including b)
  -1.0	= ihtmax !inclusive Ht for all partons (including b)
 #*********************************************************************
 # WBF cuts                                                           *
 #*********************************************************************
  0.0	= xetamin ! minimum rapidity for two jets in the WBF case  
  0.0	= deltaeta ! minimum rapidity for two jets in the WBF case 
#*********************************************************************
# maximal pdg code for quark to be considered as a light jet         *
# (otherwise b cuts are applied)                                     *
#*********************************************************************
  4	= maxjetflavor ! Maximum jet pdg code
#*********************************************************************
#
#*********************************************************************
# Store info for systematics studies                                 *
# WARNING: Do not use for interference type of computation           *
#*********************************************************************
  True	= use_syst ! Enable systematics studies
#
  systematics	= systematics_program ! none, systematics [python], SysCalc [depreceted, C++]
  ['--mur=0.5,1,2', '--muf=0.5,1,2', '--pdf=errorset']	= systematics_arguments ! see: https://cp3.irmp.ucl.ac.be/projects/madgraph/wiki/Systematics#Systematicspythonmodule
]]>
</MGRunCard>
<slha>
######################################################################
## PARAM_CARD AUTOMATICALY GENERATED BY MG5                       ####
######################################################################
###################################
## INFORMATION FOR CKMBLOCK
###################################
BLOCK CKMBLOCK # 
      1 2.275910e-01 # cabi
      2 3.508000e-03 # th13
      3 4.153900e-02 # th23
      4 1.200000e+00 # del13
###################################
## INFORMATION FOR MASS
###################################
BLOCK MASS # 
      1 5.040000e-03 # md
      2 2.550000e-03 # mu
      3 1.010000e-01 # ms
      4 1.270000e+00 # mc
      5 4.700000e+00 # mb
      6 1.733000e+02 # mt
      11 5.110000e-04 # me
      13 1.056600e-01 # mmu
      15 1.777000e+00 # mta
      23 9.118760e+01 # mz
      25 1.257000e+02 # mh
      9900012 1.700000e+00 # mn1
      9900014 5.000000e+02 # mn2
      9900016 1.000000e+03 # mn3
      12 0.000000e+00 # ve : 0.0
      14 0.000000e+00 # vm : 0.0
      16 0.000000e+00 # vt : 0.0
      21 0.000000e+00 # g : 0.0
      22 0.000000e+00 # a : 0.0
      24 7.995123e+01 # w+ : cmath.sqrt(mz__exp__2/2. + cmath.sqrt(mz__exp__4/4. - (aew*cmath.pi*mz__exp__2)/(gf*sqrt__2)))
###################################
## INFORMATION FOR NUMIXING
###################################
BLOCK NUMIXING # 
      1 1.000000e-02 # ven1
      2 0.000000e+00 # ven2
      3 0.000000e+00 # ven3
      4 0.000000e+00 # vmun1
      5 0.000000e+00 # vmun2
      6 0.000000e+00 # vmun3
      7 0.000000e+00 # vtan1
      8 0.000000e+00 # vtan2
      9 0.000000e+00 # vtan3
###################################
## INFORMATION FOR SMINPUTS
###################################
BLOCK SMINPUTS # 
      1 1.279400e+02 # aewm1
      2 1.174560e-05 # gf
      3 1.184000e-01 # as (note that parameter not used if you use a pdf set)
###################################
## INFORMATION FOR YUKAWA
###################################
BLOCK YUKAWA # 
      1 5.040000e-03 # ymdo
      2 2.550000e-03 # ymup
      3 1.010000e-01 # yms
      4 1.270000e+00 # ymc
      5 4.700000e+00 # ymb
      6 1.733000e+02 # ymt
      11 5.110000e-04 # yme
      13 1.056600e-01 # ymm
      15 1.777000e+00 # ymtau
###################################
## INFORMATION FOR DECAY
###################################
BLOCK QNUMBERS 9900012 #     n1
      1 0 # 3 times electric charge
      2 2 # number of spin states (2s+1)
      3 1 # colour rep (1: singlet, 3: triplet, 8: octet)
      4 0 # particle/antiparticle distinction (0=own anti)
###################################
## INFORMATION FOR QNUMBERS 9900014
###################################
BLOCK QNUMBERS 9900014 #     n2
      1 0 # 3 times electric charge
      2 2 # number of spin states (2s+1)
      3 1 # colour rep (1: singlet, 3: triplet, 8: octet)
      4 0 # particle/antiparticle distinction (0=own anti)
###################################
## INFORMATION FOR QNUMBERS 9900016
###################################
BLOCK QNUMBERS 9900016 #     n3
      1 0 # 3 times electric charge
      2 2 # number of spin states (2s+1)
      3 1 # colour rep (1: singlet, 3: triplet, 8: octet)
      4 0 # particle/antiparticle distinction (0=own anti)
#
#*************************
#      Decay widths      *
#*************************
#
#      PDG        Width
DECAY  1   0.000000e+00
#
#      PDG        Width
DECAY  2   0.000000e+00
#
#      PDG        Width
DECAY  3   0.000000e+00
#
#      PDG        Width
DECAY  4   0.000000e+00
#
#      PDG        Width
DECAY  5   0.000000e+00
#
#      PDG        Width
DECAY  6   1.350000e+00
#
#      PDG        Width
DECAY  11   0.000000e+00
#
#      PDG        Width
DECAY  12   0.000000e+00
#
#      PDG        Width
DECAY  13   0.000000e+00
#
#      PDG        Width
DECAY  14   0.000000e+00
#
#      PDG        Width
DECAY  15   0.000000e+00
#
#      PDG        Width
DECAY  16   0.000000e+00
#
#      PDG        Width
DECAY  21   0.000000e+00
#
#      PDG        Width
DECAY  22   0.000000e+00
#
#      PDG        Width
DECAY  23   2.495200e+00
#
#      PDG        Width
DECAY  24   2.085000e+00
#
#      PDG        Width
DECAY  25   4.170000e-03
#
#      PDG        Width
DECAY  9900012   4.481533e-16
#  BR             NDA  ID1    ID2   ...
   2.089553e-01   3    -1  2  11 # 9.364400724749e-17
   2.073710e-01   3    -11  -2  1 # 9.29339979743e-17
   7.203785e-02   3    -14  -11  13 # 3.2284000202405e-17
   7.123009e-02   3    -13  11  14 # 3.1921999892796995e-17
   4.299422e-02   3    -12  -11  11 # 1.9268001573926e-17
   4.296967e-02   3    -11  11  12 # 1.9256999410411e-17
   4.080077e-02   3    -12  -1  1 # 1.8284999718041e-17
   4.078069e-02   3    -1  1  12 # 1.8276000799777e-17
   3.858055e-02   3    -3  3  12 # 1.7290000798315e-17
   3.828824e-02   3    -12  -3  3 # 1.7159001107192004e-17
   3.153385e-02   3    -12  -2  2 # 1.4131998939205002e-17
   3.137319e-02   3    -2  2  12 # 1.4059998630027002e-17
   1.841892e-02   3    -14  12  14 # 8.254499780436e-18
   1.841892e-02   3    -16  12  16 # 8.254499780436e-18
   1.806190e-02   3    -14  -12  14 # 8.094500089269999e-18
   1.806190e-02   3    -16  -12  16 # 8.094500089269999e-18
   1.090564e-02   3    -3  2  11 # 4.887398554612e-18
   1.078805e-02   3    -11  -2  3 # 4.834700208065e-18
   9.198415e-03   3    -12  -12  12 # 4.1223000370195e-18
   9.152448e-03   3    -12  12  12 # 4.1016997742784e-18
   8.668016e-03   3    -13  12  13 # 3.8845999748528e-18
   8.613570e-03   3    -13  -12  13 # 3.8601998202809995e-18
   1.400748e-03   3    -11  -4  3 # 6.277498386684001e-19
   1.396085e-03   3    -3  4  11 # 6.256600998305e-19
#
#      PDG        Width
DECAY  9900014   1.500000e+00
#
#      PDG        Width
DECAY  9900016   1.230000e+01
</slha>
<MGGenerationInfo>
#  Number of Events        :       100
#  Integrated weight (pb)  :       1.663676
</MGGenerationInfo>
</header>
<init>
2212 2212 7.000000e+03 7.000000e+03 0 0 247000 247000 -4 2
9.644260e-01 7.809502e-03 1.663676e+00 1
6.992500e-01 4.245358e-03 1.663676e+00 2
<generator name='MadGraph5_aMC@NLO' version='3.5.5'>please cite 1405.0301 </generator>
</init>
<event>
 5      1 +1.6636760e+00 7.31258100e+01 7.81616400e-03 1.34977500e-01
        2 -1    0    0  501    0 +0.0000000000e+00 +0.0000000000e+00 +2.3607001196e+00 2.3607014968e+00 2.5500000000e-03 0.0000e+00 -1.0000e+00
       -1 -1    0    0    0  501 -0.0000000000e+00 -0.0000000000e+00 -5.6629195828e+02 5.6629195831e+02 5.0400000000e-03 0.0000e+00 1.0000e+00
       24  2    1    2    0    0 +0.0000000000e+00 +0.0000000000e+00 -5.6393125816e+02 5.6865265980e+02 7.3125806433e+01 0.0000e+00 0.0000e+00
      -11  1    3    3    0    0 +1.9435442854e+01 +2.3711719396e+01 -4.3644734589e+02 4.3752287690e+02 5.1100000000e-04 0.0000e+00 1.0000e+00
  9900012  1    3    3    0    0 -1.9435442854e+01 -2.3711719396e+01 -1.2748391228e+02 1.3112978291e+02 1.7000000000e+00 0.0000e+00 -1.0000e+00
<mgrwt>
<rscale>  0 0.73125806E+02</rscale>
<asrwt>0</asrwt>
<pdfrwt beam="1">  1        2 0.33724334E-03 0.73125806E+02</pdfrwt>
<pdfrwt beam="2">  1       -1 0.80898765E-01 0.73125806E+02</pdfrwt>
<totfact> 0.99816953E+04</totfact>
</mgrwt>
</event>
<event>
 5      1 +1.6636760e+00 8.47861000e+01 7.81616400e-03 1.31599300e-01
        2 -1    0    0  501    0 +0.0000000000e+00 +0.0000000000e+00 +1.0344964400e+03 1.0344964400e+03 2.5500000000e-03 0.0000e+00 -1.0000e+00
       -1 -1    0    0    0  501 -0.0000000000e+00 -0.0000000000e+00 -1.7372385525e+00 1.7372458634e+00 5.0400000000e-03 0.0000e+00 1.0000e+00
       24  2    1    2    0    0 +0.0000000000e+00 +0.0000000000e+00 +1.0327592014e+03 1.0362336858e+03 8.4786104699e+01 0.0000e+00 0.0000e+00
      -11  1    3    3    0    0 -1.7780433795e+01 -3.0393837224e+01 +2.2804024912e+02 2.3074289672e+02 5.1100000000e-04 0.0000e+00 1.0000e+00
  9900012  1    3    3    0    0 +1.7780433795e+01 +3.0393837224e+01 +8.0471895230e+02 8.0549078913e+02 1.7000000000e+00 0.0000e+00 -1.0000e+00
<mgrwt>
<rscale>  0 0.84786105E+02</rscale>
<asrwt>0</asrwt>
<pdfrwt beam="1">  1        2 0.14778553E+00 0.84786105E+02</pdfrwt>
<pdfrwt beam="2">  1       -1 0.24817692E-03 0.84786105E+02</pdfrwt>
<totfact> 0.37111722E+05</totfact>
</mgrwt>
</event>
<event>
 5      1 +1.6636760e+00 6.36682700e+01 7.81616400e-03 1.38305200e-01
        2 -1    0    0  501    0 +0.0000000000e+00 +0.0000000000e+00 +6.0277300529e+02 6.0277300530e+02 2.5500000000e-03 0.0000e+00 -1.0000e+00
       -1 -1    0    0    0  501 -0.0000000000e+00 -0.0000000000e+00 -1.6812461151e+00 1.6812536695e+00 5.0400000000e-03 0.0000e+00 1.0000e+00
       24  2    1    2    0    0 +0.0000000000e+00 +0.0000000000e+00 +6.0109175918e+02 6.0445425897e+02 6.3668267078e+01 0.0000e+00 0.0000e+00
      -11  1    3    3    0    0 -2.4211302790e+01 -1.8624085454e+01 +2.1598949301e+02 2.1813872841e+02 5.1100000000e-04 0.0000e+00 1.0000e+00
  9900012  1    3    3    0    0 +2.4211302790e+01 +1.8624085454e+01 +3.8510226616e+02 3.8631553055e+02 1.7000000000e+00 0.0000e+00 -1.0000e+00
<mgrwt>
<rscale>  0 0.63668267E+02</rscale>
<asrwt>0</asrwt>
<pdfrwt beam="1">  1        2 0.86110496E-01 0.63668267E+02</pdfrwt>
<pdfrwt beam="2">  1       -1 0.24017837E-03 0.63668267E+02</pdfrwt>
<totfact> 0.69549222E+05</totfact>
</mgrwt>
</event>
<event>
 5      2 +1.6636760e+00 7.94771100e+01 7.81616400e-03 1.33054200e-01
        1 -1    0    0  501    0 +0.0000000000e+00 +0.0000000000e+00 +2.2724710031e+01 2.2724710590e+01 5.0400000000e-03 0.0000e+00 -1.0000e+00
       -2 -1    0    0    0  501 -0.0000000000e+00 -0.0000000000e+00 -6.9490556763e+01 6.9490556810e+01 2.5500000000e-03 0.0000e+00 1.0000e+00
      -24  2    1    2    0    0 +0.0000000000e+00 +0.0000000000e+00 -4.6765846732e+01 9.2215267400e+01 7.9477110674e+01 0.0000e+00 0.0000e+00
       11  1    3    3    0    0 +1.0737845883e+01 +3.7963232179e+01 -1.8029947831e+01 4.3377267673e+01 5.1100000000e-04 0.0000e+00 -1.0000e+00
  9900012  1    3    3    0    0 -1.0737845883e+01 -3.7963232179e+01 -2.8735898901e+01 4.8837999727e+01 1.7000000000e+00 0.0000e+00 1.0000e+00
<mgrwt>
<rscale>  0 0.79477111E+02</rscale>
<asrwt>0</asrwt>
<pdfrwt beam="1">  1        1 0.32463872E-02 0.79477111E+02</pdfrwt>
<pdfrwt beam="2">  1       -2 0.99272223E-02 0.79477111E+02</pdfrwt>
<totfact> 0.14521027E+05</totfact>
</mgrwt>
</event>
<event>
 5      1 +1.6636760e+00 7.53287800e+01 7.81616400e-03 1.34285600e-01
       -3 -1    0    0    0  501 -0.0000000000e+00 +0.0000000000e+00 +9.5076575761e+00 9.5081940232e+00 1.0100000000e-01 0.0000e+00 1.0000e+00
        4 -1    0    0  501    0 +0.0000000000e+00 -0.0000000000e+00 -1.4915710609e+02 1.4916251271e+02 1.2700000000e+00 0.0000e+00 -1.0000e+00
       24  2    1    2    0    0 +0.0000000000e+00 +0.0000000000e+00 -1.3964944852e+02 1.5867070673e+02 7.5328777397e+01 0.0000e+00 0.0000e+00
      -11  1    3    3    0    0 -3.2064987890e+01 +1.9721808673e+01 -7.0252364607e+01 7.9702621782e+01 5.1100000000e-04 0.0000e+00 1.0000e+00
  9900012  1    3    3    0    0 +3.2064987890e+01 -1.9721808673e+01 -6.9397083908e+01 7.8968084950e+01 1.7000000000e+00 0.0000e+00 -1.0000e+00
<mgrwt>
<rscale>  0 0.75328777E+02</rscale>
<asrwt>0</asrwt>
<pdfrwt beam="2">  1        4 0.21314600E-01 0.75328777E+02</pdfrwt>
<pdfrwt beam="1">  1       -3 0.13582778E-02 0.75328777E+02</pdfrwt>
<totfact> 0.54582309E+04</totfact>
</mgrwt>
</event>
<event>
 5      2 +1.6636760e+00 7.96272400e+01 7.81616400e-03 1.33011300e-01
       -2 -1    0    0    0  501 -0.0000000000e+00 +0.0000000000e+00 +4.5799968793e+01 4.5799968864e+01 2.5500000000e-03 0.0000e+00 1.0000e+00
        1 -1    0    0  501    0 +0.0000000000e+00 -0.0000000000e+00 -3.4609724815e+01 3.4609725182e+01 5.0400000000e-03 0.0000e+00 -1.0000e+00
      -24  2    1    2    0    0 +0.0000000000e+00 +0.0000000000e+00 +1.1190243978e+01 8.0409694046e+01 7.9627239913e+01 0.0000e+00 0.0000e+00
       11  1    3    3    0    0 -3.4194577221e+01 +2.0222938260e+01 +7.9485901625e+00 4.0514397799e+01 5.1100000000e-04 0.0000e+00 -1.0000e+00
  9900012  1    3    3    0    0 +3.4194577221e+01 -2.0222938260e+01 +3.2416538156e+00 3.9895296247e+01 1.7000000000e+00 0.0000e+00 1.0000e+00
<mgrwt>
<rscale>  0 0.79627240E+02</rscale>
<asrwt>0</asrwt>
<pdfrwt beam="2">  1        1 0.49442464E-02 0.79627240E+02</pdfrwt>
<pdfrwt beam="1">  1       -2 0.65428527E-02 0.79627240E+02</pdfrwt>
<totfact> 0.15516930E+05</totfact>
</mgrwt>
</event>
<event>
 5      1 +1.6636760e+00 8.32652200e+01 7.81616400e-03 1.32003300e-01
       -1 -1    0    0    0  501 -0.0000000000e+00 +0.0000000000e+00 +3.0743560943e+00 3.0743602255e+00 5.0400000000e-03 0.0000e+00 1.0000e+00
        2 -1    0    0  501    0 +0.0000000000e+00 -0.0000000000e+00 -5.6378414554e+02 5.6378414555e+02 2.5500000000e-03 0.0000e+00 -1.0000e+00
       24  2    1    2    0    0 +0.0000000000e+00 +0.0000000000e+00 -5.6070978945e+02 5.6685850577e+02 8.3265224344e+01 0.0000e+00 0.0000e+00
      -11  1    3    3    0    0 -3.6379541103e+01 -2.0135704428e+01 -2.6862050464e+02 2.7181959664e+02 5.1100000000e-04 0.0000e+00 1.0000e+00
  9900012  1    3    3    0    0 +3.6379541103e+01 +2.0135704428e+01 -2.9208928481e+02 2.9503890913e+02 1.7000000000e+00 0.0000e+00 -1.0000e+00
<mgrwt>
<rscale>  0 0.83265224E+02</rscale>
<asrwt>0</asrwt>
<pdfrwt beam="2">  1        2 0.80540526E-01 0.83265224E+02</pdfrwt>
<pdfrwt beam="1">  1       -1 0.43919438E-03 0.83265224E+02</pdfrwt>
<totfact> 0.34221707E+05</totfact>
</mgrwt>
</event>
<event>
 5      2 +1.6636760e+00 7.58763600e+01 7.81616400e-03 1.34117800e-01
        3 -1    0    0  501    0 +0.0000000000e+00 +0.0000000000e+00 +1.4485987332e+02 1.4485990853e+02 1.0100000000e-01 0.0000e+00 -1.0000e+00
       -4 -1    0    0    0  501 -0.0000000000e+00 -0.0000000000e+00 -9.8924513564e+00 9.9736399493e+00 1.2700000000e+00 0.0000e+00 1.0000e+00
      -24  2    1    2    0    0 +0.0000000000e+00 +0.0000000000e+00 +1.3496742196e+02 1.5483354848e+02 7.5876364851e+01 0.0000e+00 0.0000e+00
       11  1    3    3    0    0 +7.0829825127e+00 -3.8196970349e+00 +1.4306519171e+02 1.4329133891e+02 5.1100000000e-04 0.0000e+00 -1.0000e+00
  9900012  1    3    3    0    0 -7.0829825127e+00 +3.8196970349e+00 -8.0977697517e+00 1.1542209566e+01 1.7000000000e+00 0.0000e+00 1.0000e+00
<mgrwt>
<rscale>  0 0.75876365E+02</rscale>
<asrwt>0</asrwt>
<pdfrwt beam="1">  1        3 0.20694306E-01 0.75876365E+02</pdfrwt>
<pdfrwt beam="2">  1       -4 0.14194043E-02 0.75876365E+02</pdfrwt>
<totfact> 0.58112295E+04</totfact>
</mgrwt>
</event>
<event>
 5      1 +1.6636760e+00 7.97879200e+01 7.81616400e-03 1.32965400e-01
       -1 -1    0    0    0  501 -0.0000000000e+00 +0.0000000000e+00 +2.6187762768e+00 2.6187811267e+00 5.0400000000e-03 0.0000e+00 1.0000e+00
        2 -1    0    0  501    0 +0.0000000000e+00 -0.0000000000e+00 -6.0773667620e+02 6.0773667620e+02 2.5500000000e-03 0.0000e+00 -1.0000e+00
       24  2    1    2    0    0 +0.0000000000e+00 +0.0000000000e+00 -6.0511789992e+02 6.1035545733e+02 7.9787915673e+01 0.0000e+00 0.0000e+00
      -11  1    3    3    0    0 -1.7196703655e+01 +3.5421756193e+01 -3.5059406819e+02 3.5279828242e+02 5.1100000000e-04 0.0000e+00 1.0000e+00
  9900012  1    3    3    0    0 +1.7196703655e+01 -3.5421756193e+01 -2.5452383173e+02 2.5755717491e+02 1.7000000000e+00 0.0000e+00 -1.0000e+00
<mgrwt>
<rscale>  0 0.79787916E+02</rscale>
<asrwt>0</asrwt>
<pdfrwt beam="2">  1        2 0.86819435E-01 0.79787916E+02</pdfrwt>
<pdfrwt beam="1">  1       -1 0.37411163E-03 0.79787916E+02</pdfrwt>
<totfact> 0.39106471E+05</totfact>
</mgrwt>
</event>
<event>
 5      1 +1.6636760e+00 8.02245300e+01 7.81616400e-03 1.32841500e-01
       -1 -1    0    0    0  501 -0.0000000000e+00 +0.0000000000e+00 +3.2212872386e+01 3.2212872781e+01 5.0400000000e-03 0.0000e+00 1.0000e+00
        2 -1    0    0  501    0 +0.0000000000e+00 -0.0000000000e+00 -4.9948788986e+01 4.9948789052e+01 2.5500000000e-03 0.0000e+00 -1.0000e+00
       24  2    1    2    0    0 +0.0000000000e+00 +0.0000000000e+00 -1.7735916600e+01 8.2161661832e+01 8.0224534510e+01 0.0000e+00 0.0000e+00
      -11  1    3    3    0    0 -6.2625020647e-01 -1.9128875269e+01 +2.7218011854e+01 3.3273506397e+01 5.1100000000e-04 0.0000e+00 1.0000e+00
  9900012  1    3    3    0    0 +6.2625020647e-01 +1.9128875269e+01 -4.4953928454e+01 4.8888155435e+01 1.7000000000e+00 0.0000e+00 -1.0000e+00
<mgrwt>
<rscale>  0 0.80224535E+02</rscale>
<asrwt>0</asrwt>
<pdfrwt beam="2">  1        2 0.71355413E-02 0.80224535E+02</pdfrwt>
<pdfrwt beam="1">  1       -1 0.46018390E-02 0.80224535E+02</pdfrwt>
<totfact> 0.18109037E+05</totfact>
</mgrwt>
</event>
<event>
 5      1 +1.6636760e+00 8.17051000e+01 7.81616400e-03 1.32428100e-01
        4 -1    0    0  501    0 +0.0000000000e+00 +0.0000000000e+00 +9.2507207944e+01 9.2515925233e+01 1.2700000000e+00 0.0000e+00 -1.0000e+00
       -3 -1    0    0    0  501 -0.0000000000e+00 -0.0000000000e+00 -1.8035714155e+01 1.8035996953e+01 1.0100000000e-01 0.0000e+00 1.0000e+00
       24  2    1    2    0    0 +0.0000000000e+00 +0.0000000000e+00 +7.4471493789e+01 1.1055192219e+02 8.1705104564e+01 0.0000e+00 0.0000e+00
      -11  1    3    3    0    0 -2.6753550251e+00 -3.8570887890e+01 +1.9442691176e+01 4.3276889416e+01 5.1100000000e-04 0.0000e+00 1.0000e+00
  9900012  1    3    3    0    0 +2.6753550251e+00 +3.8570887890e+01 +5.5028802613e+01 6.7275032770e+01 1.7000000000e+00 0.0000e+00 -1.0000e+00
<mgrwt>
<rscale>  0 0.81705105E+02</rscale>
<asrwt>0</asrwt>
<pdfrwt beam="1">  1        4 0.13219132E-01 0.81705105E+02</pdfrwt>
<pdfrwt beam="2">  1       -3 0.25765547E-02 0.81705105E+02</pdfrwt>
<totfact> 0.49329768E+04</totfact>
</mgrwt>
</event>
<event>
 5      1 +1.6636760e+00 7.92943100e+01 7.81616400e-03 1.33106600e-01
        2 -1    0    0  501    0 +0.0000000000e+00 +0.0000000000e+00 +2.3926773827e+00 2.3926787415e+00 2.5500000000e-03 0.0000e+00 -1.0000e+00
       -1 -1    0    0    0  501 -0.0000000000e+00 -0.0000000000e+00 -6.5696126747e+02 6.5696126749e+02 5.0400000000e-03 0.0000e+00 1.0000e+00
       24  2    1    2    0    0 +0.0000000000e+00 +0.0000000000e+00 -6.5456859009e+02 6.5935394623e+02 7.9294308000e+01 0.0000e+00 0.0000e+00
      -11  1    3    3    0    0 +4.8815819287e+00 -1.8645361414e+01 -6.1506011499e+02 6.1536202710e+02 5.1100000000e-04 0.0000e+00 1.0000e+00
  9900012  1    3    3    0    0 -4.8815819287e+00 +1.8645361414e+01 -3.9508475103e+01 4.3991919137e+01 1.7000000000e+00 0.0000e+00 -1.0000e+00
<mgrwt>
<rscale>  0 0.79294308E+02</rscale>
<asrwt>0</asrwt>
<pdfrwt beam="1">  1        2 0.34181157E-03 0.79294308E+02</pdfrwt>
<pdfrwt beam="2">  1       -1 0.93851495E-01 0.79294308E+02</pdfrwt>
<totfact> 0.73096163E+04</totfact>
</mgrwt>
</event>
<event>
 5      1 +1.6636760e+00 8.17756500e+01 7.81616400e-03 1.32408700e-01
       -1 -1    0    0    0  501 -0.0000000000e+00 +0.0000000000e+00 +4.4228017330e+00 4.4228046047e+00 5.0400000000e-03 0.0000e+00 1.0000e+00
        2 -1    0    0  501    0 +0.0000000000e+00 -0.0000000000e+00 -3.7799875146e+02 3.7799875147e+02 2.5500000000e-03 0.0000e+00 -1.0000e+00
       24  2    1    2    0    0 +0.0000000000e+00 +0.0000000000e+00 -3.7357594973e+02 3.8242155607e+02 8.1775646345e+01 0.0000e+00 0.0000e+00
      -11  1    3    3    0    0 -1.1773556280e+01 +3.8969241478e+01 -1.6974835652e+02 1.7456151624e+02 5.1100000000e-04 0.0000e+00 1.0000e+00
  9900012  1    3    3    0    0 +1.1773556280e+01 -3.8969241478e+01 -2.0382759321e+02 2.0786003984e+02 1.7000000000e+00 0.0000e+00 -1.0000e+00
<mgrwt>
<rscale>  0 0.81775646E+02</rscale>
<asrwt>0</asrwt>
<pdfrwt beam="2">  1        2 0.53999801E-01 0.81775646E+02</pdfrwt>
<pdfrwt beam="1">  1       -1 0.63182927E-03 0.81775646E+02</pdfrwt>
<totfact> 0.31340947E+05</totfact>
</mgrwt>
</event>
<event>
 5      1 +1.6636760e+00 7.91420300e+01 7.81616400e-03 1.33150400e-01
       -1 -1    0    0    0  501 -0.0000000000e+00 +0.0000000000e+00 +1.0982265281e+01 1.0982266438e+01 5.0400000000e-03 0.0000e+00 1.0000e+00
        2 -1    0    0  501    0 +0.0000000000e+00 -0.0000000000e+00 -1.4258126207e+02 1.4258126210e+02 2.5500000000e-03 0.0000e+00 -1.0000e+00
       24  2    1    2    0    0 +0.0000000000e+00 +0.0000000000e+00 -1.3159899679e+02 1.5356352853e+02 7.9142032695e+01 0.0000e+00 0.0000e+00
      -11  1    3    3    0    0 -6.5420170110e+00 -1.9727603648e+01 -4.7272665521e-01 2.0789415649e+01 5.1100000000e-04 0.0000e+00 1.0000e+00
  9900012  1    3    3    0    0 +6.5420170110e+00 +1.9727603648e+01 -1.3112627014e+02 1.3277411288e+02 1.7000000000e+00 0.0000e+00 -1.0000e+00
<mgrwt>
<rscale>  0 0.79142033E+02</rscale>
<asrwt>0</asrwt>
<pdfrwt beam="2">  1        2 0.20368751E-01 0.79142033E+02</pdfrwt>
<pdfrwt beam="1">  1       -1 0.15688952E-02 0.79142033E+02</pdfrwt>
<totfact> 0.24444209E+05</totfact>
</mgrwt>
</event>
<event>
 5      2 +1.6636760e+00 7.68414000e+01 7.81616400e-03 1.33826200e-01
       -4 -1    0    0    0  501 -0.0000000000e+00 +0.0000000000e+00 +8.3323018044e-01 1.5189379624e+00 1.2700000000e+00 0.0000e+00 1.0000e+00
        1 -1    0    0  501    0 +0.0000000000e+00 -0.0000000000e+00 -1.2547972023e+03 1.2547972023e+03 5.0400000000e-03 0.0000e+00 -1.0000e+00
      -24  2    1    2    0    0 +0.0000000000e+00 +0.0000000000e+00 -1.2539639722e+03 1.2563161403e+03 7.6841401182e+01 0.0000e+00 0.0000e+00
       11  1    3    3    0    0 +1.1714958932e+01 -1.8092427703e+01 -1.1463026575e+03 1.1465052807e+03 5.1100000000e-04 0.0000e+00 -1.0000e+00
  9900012  1    3    3    0    0 -1.1714958932e+01 +1.8092427703e+01 -1.0766131466e+02 1.0981085956e+02 1.7000000000e+00 0.0000e+00 1.0000e+00
<mgrwt>
<rscale>  0 0.76841401E+02</rscale>
<asrwt>0</asrwt>
<pdfrwt beam="2">  1        1 0.17925589E+00 0.76841401E+02</pdfrwt>
<pdfrwt beam="1">  1       -4 0.16805872E-03 0.76841401E+02</pdfrwt>
<totfact> 0.20037740E+05</totfact>
</mgrwt>
</event>
<event>
 5      1 +1.6636760e+00 7.95162300e+01 7.81616400e-03 1.33043000e-01
       -3 -1    0    0    0  501 -0.0000000000e+00 +0.0000000000e+00 +8.0843497335e-01 8.1471964880e-01 1.0100000000e-01 0.0000e+00 1.0000e+00
        2 -1    0    0  501    0 +0.0000000000e+00 -0.0000000000e+00 -1.9476949672e+03 1.9476949672e+03 2.5500000000e-03 0.0000e+00 -1.0000e+00
       24  2    1    2    0    0 +0.0000000000e+00 +0.0000000000e+00 -1.9468865322e+03 1.9485096869e+03 7.9516227178e+01 0.0000e+00 0.0000e+00
      -11  1    3    3    0    0 -2.4644404929e+01 -1.6468380483e+01 -1.6216559905e+03 1.6219268497e+03 5.1100000000e-04 0.0000e+00 1.0000e+00
  9900012  1    3    3    0    0 +2.4644404929e+01 +1.6468380483e+01 -3.2523054173e+02 3.2658283716e+02 1.7000000000e+00 0.0000e+00 -1.0000e+00
<mgrwt>
<rscale>  0 0.79516227E+02</rscale>
<asrwt>0</asrwt>
<pdfrwt beam="2">  1        2 0.27823914E+00 0.79516227E+02</pdfrwt>
<pdfrwt beam="1">  1       -3 0.11594105E-03 0.79516227E+02</pdfrwt>
<totfact> 0.33680703E+05</totfact>
</mgrwt>
</event>
<event>
 5      2 +1.6636760e+00 8.18610200e+01 7.81616400e-03 1.32385200e-01
        1 -1    0    0  501    0 +0.0000000000e+00 +0.0000000000e+00 +4.6707655802e+00 4.6707682994e+00 5.0400000000e-03 0.0000e+00 -1.0000e+00
       -2 -1    0    0    0  501 -0.0000000000e+00 -0.0000000000e+00 -3.5867910514e+02 3.5867910514e+02 2.5500000000e-03 0.0000e+00 1.0000e+00
      -24  2    1    2    0    0 +0.0000000000e+00 +0.0000000000e+00 -3.5400833955e+02 3.6334987344e+02 8.1861016712e+01 0.0000e+00 0.0000e+00
       11  1    3    3    0    0 +3.6788070382e+01 +1.7631132056e+01 -1.6314459194e+02 1.6816770445e+02 5.1100000000e-04 0.0000e+00 -1.0000e+00
  9900012  1    3    3    0    0 -3.6788070382e+01 -1.7631132056e+01 -1.9086374761e+02 1.9518216899e+02 1.7000000000e+00 0.0000e+00 1.0000e+00
<mgrwt>
<rscale>  0 0.81861017E+02</rscale>
<asrwt>0</asrwt>
<pdfrwt beam="1">  1        1 0.66725265E-03 0.81861017E+02</pdfrwt>
<pdfrwt beam="2">  1       -2 0.51239855E-01 0.81861017E+02</pdfrwt>
<totfact> 0.76609513E+04</totfact>
</mgrwt>
</event>
<event>
 5      1 +1.6636760e+00 7.91157300e+01 7.81616400e-03 1.33158000e-01
       -1 -1    0    0    0  501 -0.0000000000e+00 +0.0000000000e+00 +5.2764284039e+01 5.2764284280e+01 5.0400000000e-03 0.0000e+00 1.0000e+00
        2 -1    0    0  501    0 +0.0000000000e+00 -0.0000000000e+00 -2.9656890290e+01 2.9656890399e+01 2.5500000000e-03 0.0000e+00 -1.0000e+00
       24  2    1    2    0    0 +0.0000000000e+00 +0.0000000000e+00 +2.3107393749e+01 8.2421174679e+01 7.9115727827e+01 0.0000e+00 0.0000e+00
      -11  1    3    3    0    0 +3.3859478864e+01 -2.1759157689e+00 +3.2698829478e+01 4.7121251765e+01 5.1100000000e-04 0.0000e+00 1.0000e+00
  9900012  1    3    3    0    0 -3.3859478864e+01 +2.1759157689e+00 -9.5914357293e+00 3.5299922914e+01 1.7000000000e+00 0.0000e+00 -1.0000e+00
<mgrwt>
<rscale>  0 0.79115728E+02</rscale>
<asrwt>0</asrwt>
<pdfrwt beam="2">  1        2 0.42366986E-02 0.79115728E+02</pdfrwt>
<pdfrwt beam="1">  1       -1 0.75377549E-02 0.79115728E+02</pdfrwt>
<totfact> 0.17017380E+05</totfact>
</mgrwt>
</event>
<event>
 5      1 +1.6636760e+00 8.06354700e+01 7.81616400e-03 1.32725800e-01
        2 -1    0    0  501    0 +0.0000000000e+00 +0.0000000000e+00 +2.7137528580e+02 2.7137528581e+02 2.5500000000e-03 0.0000e+00 -1.0000e+00
       -1 -1    0    0    0  501 -0.0000000000e+00 -0.0000000000e+00 -5.9899322509e+00 5.9899343712e+00 5.0400000000e-03 0.0000e+00 1.0000e+00
       24  2    1    2    0    0 +0.0000000000e+00 +0.0000000000e+00 +2.6538535355e+02 2.7736522018e+02 8.0635472894e+01 0.0000e+00 0.0000e+00
      -11  1    3    3    0    0 -2.9302245642e+01 -4.7985763861e+00 +3.8909265940e+01 4.8944651508e+01 5.1100000000e-04 0.0000e+00 1.0000e+00
  9900012  1    3    3    0    0 +2.9302245642e+01 +4.7985763861e+00 +2.2647608761e+02 2.2842056868e+02 1.7000000000e+00 0.0000e+00 -1.0000e+00
<mgrwt>
<rscale>  0 0.80635473E+02</rscale>
<asrwt>0</asrwt>
<pdfrwt beam="1">  1        2 0.38767905E-01 0.80635473E+02</pdfrwt>
<pdfrwt beam="2">  1       -1 0.85570460E-03 0.80635473E+02</pdfrwt>
<totfact> 0.28867463E+05</totfact>
</mgrwt>
</event>
<event>
 5      1 +1.6636760e+00 7.60634000e+01 7.81616400e-03 1.34060900e-01
        2 -1    0    0  501    0 +0.0000000000e+00 +0.0000000000e+00 +2.0235978275e+03 2.0235978275e+03 2.5500000000e-03 0.0000e+00 -1.0000e+00
       -1 -1    0    0    0  501 -0.0000000000e+00 -0.0000000000e+00 -7.1476272984e-01 7.1478049887e-01 5.0400000000e-03 0.0000e+00 1.0000e+00
       24  2    1    2    0    0 +0.0000000000e+00 +0.0000000000e+00 +2.0228830648e+03 2.0243126080e+03 7.6063402341e+01 0.0000e+00 0.0000e+00
      -11  1    3    3    0    0 -6.6061495319e+00 +1.2179860232e+01 +6.8888129037e+01 7.0267805782e+01 5.1100000000e-04 0.0000e+00 1.0000e+00
  9900012  1    3    3    0    0 +6.6061495319e+00 -1.2179860232e+01 +1.9539949357e+03 1.9540448022e+03 1.7000000000e+00 0.0000e+00 -1.0000e+00
<mgrwt>
<rscale>  0 0.76063402E+02</rscale>
<asrwt>0</asrwt>
<pdfrwt beam="1">  1        2 0.28909169E+00 0.76063402E+02</pdfrwt>
<pdfrwt beam="2">  1       -1 0.10210801E-03 0.76063402E+02</pdfrwt>
<totfact> 0.40893806E+05</totfact>
</mgrwt>
</event>
<event>
 5      1 +1.6636760e+00 7.46626000e+01 7.81616400e-03 1.34491900e-01
        2 -1    0    0  501    0 +0.0000000000e+00 +0.0000000000e+00 +3.2798407119e+02 3.2798407120e+02 2.5500000000e-03 0.0000e+00 -1.0000e+00
       -1 -1    0    0    0  501 -0.0000000000e+00 -0.0000000000e+00 -4.2490646430e+00 4.2490676320e+00 5.0400000000e-03 0.0000e+00 1.0000e+00
       24  2    1    2    0    0 +0.0000000000e+00 +0.0000000000e+00 +3.2373500655e+02 3.3223313883e+02 7.4662601577e+01 0.0000e+00 0.0000e+00
      -11  1    3    3    0    0 +1.3457044212e+01 -2.6464569599e+01 +6.1222599697e+01 6.8041694548e+01 5.1100000000e-04 0.0000e+00 1.0000e+00
  9900012  1    3    3    0    0 -1.3457044212e+01 +2.6464569599e+01 +2.6251240685e+02 2.6419144429e+02 1.7000000000e+00 0.0000e+00 -1.0000e+00
<mgrwt>
<rscale>  0 0.74662602E+02</rscale>
<asrwt>0</asrwt>
<pdfrwt beam="1">  1        2 0.46854872E-01 0.74662602E+02</pdfrwt>
<pdfrwt beam="2">  1       -1 0.60700939E-03 0.74662602E+02</pdfrwt>
<totfact> 0.37752411E+05</totfact>
</mgrwt>
</event>
<event>
 5      1 +1.6636760e+00 8.17507100e+01 7.81616400e-03 1.32415500e-01
        4 -1    0    0  501    0 +0.0000000000e+00 +0.0000000000e+00 +2.5249466074e+02 2.5249785465e+02 1.2700000000e+00 0.0000e+00 -1.0000e+00
       -3 -1    0    0    0  501 -0.0000000000e+00 -0.0000000000e+00 -6.6151132380e+00 6.6158842305e+00 1.0100000000e-01 0.0000e+00 1.0000e+00
       24  2    1    2    0    0 +0.0000000000e+00 +0.0000000000e+00 +2.4587954750e+02 2.5911373888e+02 8.1750705173e+01 0.0000e+00 0.0000e+00
      -11  1    3    3    0    0 -2.0802267724e+01 -3.5146382868e+01 +1.1920774992e+02 1.2600988141e+02 5.1100000000e-04 0.0000e+00 1.0000e+00
  9900012  1    3    3    0    0 +2.0802267724e+01 +3.5146382868e+01 +1.2667179758e+02 1.3310385747e+02 1.7000000000e+00 0.0000e+00 -1.0000e+00
<mgrwt>
<rscale>  0 0.81750705E+02</rscale>
<asrwt>0</asrwt>
<pdfrwt beam="1">  1        4 0.36079594E-01 0.81750705E+02</pdfrwt>
<pdfrwt beam="2">  1       -3 0.94507289E-03 0.81750705E+02</pdfrwt>
<totfact> 0.36217262E+04</totfact>
</mgrwt>
</event>
<event>
 5      1 +1.6636760e+00 8.64069700e+01 7.81616400e-03 1.31179400e-01
        2 -1    0    0  501    0 +0.0000000000e+00 +0.0000000000e+00 +1.3400197718e+01 1.3400197961e+01 2.5500000000e-03 0.0000e+00 -1.0000e+00
       -1 -1    0    0    0  501 -0.0000000000e+00 -0.0000000000e+00 -1.3929206463e+02 1.3929206472e+02 5.0400000000e-03 0.0000e+00 1.0000e+00
       24  2    1    2    0    0 +0.0000000000e+00 +0.0000000000e+00 -1.2589186692e+02 1.5269226269e+02 8.6406972686e+01 0.0000e+00 0.0000e+00
      -11  1    3    3    0    0 +5.9767415276e+00 -3.4600028484e+01 -1.8489146407e+01 3.9682892353e+01 5.1100000000e-04 0.0000e+00 1.0000e+00
  9900012  1    3    3    0    0 -5.9767415276e+00 +3.4600028484e+01 -1.0740272051e+02 1.1300937033e+02 1.7000000000e+00 0.0000e+00 -1.0000e+00
<mgrwt>
<rscale>  0 0.86406973E+02</rscale>
<asrwt>0</asrwt>
<pdfrwt beam="1">  1        2 0.19143141E-02 0.86406973E+02</pdfrwt>
<pdfrwt beam="2">  1       -1 0.19898866E-01 0.86406973E+02</pdfrwt>
<totfact> 0.11248074E+05</totfact>
</mgrwt>
</event>
<event>
 5      1 +1.6636760e+00 7.96287900e+01 7.81616400e-03 1.33010800e-01
        2 -1    0    0  501    0 +0.0000000000e+00 +0.0000000000e+00 +5.1087624390e+01 5.1087624453e+01 2.5500000000e-03 0.0000e+00 -1.0000e+00
       -1 -1    0    0    0  501 -0.0000000000e+00 -0.0000000000e+00 -3.1028769218e+01 3.1028769628e+01 5.0400000000e-03 0.0000e+00 1.0000e+00
       24  2    1    2    0    0 +0.0000000000e+00 +0.0000000000e+00 +2.0058855171e+01 8.2116394081e+01 7.9628791942e+01 0.0000e+00 0.0000e+00
      -11  1    3    3    0    0 -3.6189339824e+01 -8.0561731699e+00 -4.8897123991e+00 3.7396250221e+01 5.1100000000e-04 0.0000e+00 1.0000e+00
  9900012  1    3    3    0    0 +3.6189339824e+01 +8.0561731699e+00 +2.4948567571e+01 4.4720143860e+01 1.7000000000e+00 0.0000e+00 -1.0000e+00
<mgrwt>
<rscale>  0 0.79628792E+02</rscale>
<asrwt>0</asrwt>
<pdfrwt beam="1">  1        2 0.72982319E-02 0.79628792E+02</pdfrwt>
<pdfrwt beam="2">  1       -1 0.44326814E-02 0.79628792E+02</pdfrwt>
<totfact> 0.18566541E+05</totfact>
</mgrwt>
</event>
<event>
 5      2 +1.6636760e+00 7.82626900e+01 7.81616400e-03 1.33405500e-01
       -2 -1    0    0    0  501 -0.0000000000e+00 +0.0000000000e+00 +2.6284549845e+01 2.6284549968e+01 2.5500000000e-03 0.0000e+00 1.0000e+00
        1 -1    0    0  501    0 +0.0000000000e+00 -0.0000000000e+00 -5.8257112833e+01 5.8257113051e+01 5.0400000000e-03 0.0000e+00 -1.0000e+00
      -24  2    1    2    0    0 +0.0000000000e+00 +0.0000000000e+00 -3.1972562989e+01 8.4541663020e+01 7.8262685886e+01 0.0000e+00 0.0000e+00
       11  1    3    3    0    0 +1.5791658846e+01 +2.6623585435e+01 -4.1805613289e+01 5.2018276531e+01 5.1100000000e-04 0.0000e+00 -1.0000e+00
  9900012  1    3    3    0    0 -1.5791658846e+01 -2.6623585435e+01 +9.8330503005e+00 3.2523386489e+01 1.7000000000e+00 0.0000e+00 1.0000e+00
<mgrwt>
<rscale>  0 0.78262686E+02</rscale>
<asrwt>0</asrwt>
<pdfrwt beam="2">  1        1 0.83224447E-02 0.78262686E+02</pdfrwt>
<pdfrwt beam="1">  1       -2 0.37549357E-02 0.78262686E+02</pdfrwt>
<totfact> 0.17586546E+05</totfact>
</mgrwt>
</event>
<event>
 5      2 +1.6636760e+00 8.03753800e+01 7.81616400e-03 1.32799000e-01
        1 -1    0    0  501    0 +0.0000000000e+00 +0.0000000000e+00 +5.5746771733e+02 5.5746771735e+02 5.0400000000e-03 0.0000e+00 -1.0000e+00
       -2 -1    0    0    0  501 -0.0000000000e+00 -0.0000000000e+00 -2.8971188434e+00 2.8971199656e+00 2.5500000000e-03 0.0000e+00 1.0000e+00
      -24  2    1    2    0    0 +0.0000000000e+00 +0.0000000000e+00 +5.5457059849e+02 5.6036483732e+02 8.0375383029e+01 0.0000e+00 0.0000e+00
       11  1    3    3    0    0 +1.2359036177e+01 -1.7987903222e+01 +5.1227849068e+02 5.1274317396e+02 5.1100000000e-04 0.0000e+00 -1.0000e+00
  9900012  1    3    3    0    0 -1.2359036177e+01 +1.7987903222e+01 +4.2292107811e+01 4.7621663354e+01 1.7000000000e+00 0.0000e+00 1.0000e+00
<mgrwt>
<rscale>  0 0.80375383E+02</rscale>
<asrwt>0</asrwt>
<pdfrwt beam="1">  1        1 0.79638220E-01 0.80375383E+02</pdfrwt>
<pdfrwt beam="2">  1       -2 0.41387434E-03 0.80375383E+02</pdfrwt>
<totfact> 0.23910359E+05</totfact>
</mgrwt>
</event>
<event>
 5      2 +1.6636760e+00 7.98040800e+01 7.81616400e-03 1.32960800e-01
        1 -1    0    0  501    0 +0.0000000000e+00 +0.0000000000e+00 +6.4764720040e+00 6.4764739651e+00 5.0400000000e-03 0.0000e+00 -1.0000e+00
       -2 -1    0    0    0  501 -0.0000000000e+00 -0.0000000000e+00 -2.4583951303e+02 2.4583951304e+02 2.5500000000e-03 0.0000e+00 1.0000e+00
      -24  2    1    2    0    0 +0.0000000000e+00 +0.0000000000e+00 -2.3936304102e+02 2.5231598701e+02 7.9804084424e+01 0.0000e+00 0.0000e+00
       11  1    3    3    0    0 -2.3629682215e+01 -1.4264028514e+01 -2.8599893928e+01 3.9746425298e+01 5.1100000000e-04 0.0000e+00 -1.0000e+00
  9900012  1    3    3    0    0 +2.3629682215e+01 +1.4264028514e+01 -2.1076314710e+02 2.1256956171e+02 1.7000000000e+00 0.0000e+00 1.0000e+00
<mgrwt>
<rscale>  0 0.79804084E+02</rscale>
<asrwt>0</asrwt>
<pdfrwt beam="1">  1        1 0.92521058E-03 0.79804084E+02</pdfrwt>
<pdfrwt beam="2">  1       -2 0.35119925E-01 0.79804084E+02</pdfrwt>
<totfact> 0.99298361E+04</totfact>
</mgrwt>
</event>
<event>
 5      2 +1.6636760e+00 8.08840700e+01 7.81616400e-03 1.32656100e-01
        1 -1    0    0  501    0 +0.0000000000e+00 +0.0000000000e+00 +1.0642153598e+02 1.0642153609e+02 5.0400000000e-03 0.0000e+00 -1.0000e+00
       -2 -1    0    0    0  501 -0.0000000000e+00 -0.0000000000e+00 -1.5368677914e+01 1.5368678126e+01 2.5500000000e-03 0.0000e+00 1.0000e+00
      -24  2    1    2    0    0 +0.0000000000e+00 +0.0000000000e+00 +9.1052858061e+01 1.2179021422e+02 8.0884073331e+01 0.0000e+00 0.0000e+00
       11  1    3    3    0    0 -1.0706062803e+01 +2.5180141762e+01 +9.0311935018e+01 9.4365803800e+01 5.1100000000e-04 0.0000e+00 -1.0000e+00
  9900012  1    3    3    0    0 +1.0706062803e+01 -2.5180141762e+01 +7.4092304303e-01 2.7424410420e+01 1.7000000000e+00 0.0000e+00 1.0000e+00
<mgrwt>
<rscale>  0 0.80884073E+02</rscale>
<asrwt>0</asrwt>
<pdfrwt beam="1">  1        1 0.15203077E-01 0.80884073E+02</pdfrwt>
<pdfrwt beam="2">  1       -2 0.21955254E-02 0.80884073E+02</pdfrwt>
<totfact> 0.17623534E+05</totfact>
</mgrwt>
</event>
<event>
 5      1 +1.6636760e+00 7.72684100e+01 7.81616400e-03 1.33698700e-01
        2 -1    0    0  501    0 +0.0000000000e+00 +0.0000000000e+00 +8.3608536608e+02 8.3608536608e+02 2.5500000000e-03 0.0000e+00 -1.0000e+00
       -3 -1    0    0    0  501 -0.0000000000e+00 -0.0000000000e+00 -1.7837948454e+00 1.7866519109e+00 1.0100000000e-01 0.0000e+00 1.0000e+00
       24  2    1    2    0    0 +0.0000000000e+00 +0.0000000000e+00 +8.3430157123e+02 8.3787201799e+02 7.7268407348e+01 0.0000e+00 0.0000e+00
      -11  1    3    3    0    0 +3.1296594647e+01 +1.4995200286e+01 +2.3330196172e+02 2.3586890047e+02 5.1100000000e-04 0.0000e+00 1.0000e+00
  9900012  1    3    3    0    0 -3.1296594647e+01 -1.4995200286e+01 +6.0099960952e+02 6.0200311753e+02 1.7000000000e+00 0.0000e+00 -1.0000e+00
<mgrwt>
<rscale>  0 0.77268407E+02</rscale>
<asrwt>0</asrwt>
<pdfrwt beam="1">  1        2 0.11944058E+00 0.77268407E+02</pdfrwt>
<pdfrwt beam="2">  1       -3 0.25503274E-03 0.77268407E+02</pdfrwt>
<totfact> 0.39604091E+05</totfact>
</mgrwt>
</event>
<event>
 5      2 +1.6636760e+00 8.09331900e+01 7.81616400e-03 1.32642400e-01
       -2 -1    0    0    0  501 -0.0000000000e+00 +0.0000000000e+00 +2.3263804321e+00 2.3263818296e+00 2.5500000000e-03 0.0000e+00 1.0000e+00
        1 -1    0    0  501    0 +0.0000000000e+00 -0.0000000000e+00 -7.0390245925e+02 7.0390245927e+02 5.0400000000e-03 0.0000e+00 -1.0000e+00
      -24  2    1    2    0    0 +0.0000000000e+00 +0.0000000000e+00 -7.0157607882e+02 7.0622884110e+02 8.0933192379e+01 0.0000e+00 0.0000e+00
       11  1    3    3    0    0 -3.3316805888e+01 +2.0046237574e+01 -4.4789649644e+02 4.4958106357e+02 5.1100000000e-04 0.0000e+00 -1.0000e+00
  9900012  1    3    3    0    0 +3.3316805888e+01 -2.0046237574e+01 -2.5367958238e+02 2.5664777753e+02 1.7000000000e+00 0.0000e+00 1.0000e+00
<mgrwt>
<rscale>  0 0.80933192E+02</rscale>
<asrwt>0</asrwt>
<pdfrwt beam="2">  1        1 0.10055736E+00 0.80933192E+02</pdfrwt>
<pdfrwt beam="1">  1       -2 0.33234061E-03 0.80933192E+02</pdfrwt>
<totfact> 0.23855009E+05</totfact>
</mgrwt>
</event>
<event>
 5      1 +1.6636760e+00 9.94943500e+01 7.81616400e-03 1.28136300e-01
        2 -1    0    0  501    0 +0.0000000000e+00 +0.0000000000e+00 +2.1335789565e+03 2.1335789565e+03 2.5500000000e-03 0.0000e+00 -1.0000e+00
       -1 -1    0    0    0  501 -0.0000000000e+00 -0.0000000000e+00 -1.1599146566e+00 1.1599256063e+00 5.0400000000e-03 0.0000e+00 1.0000e+00
       24  2    1    2    0    0 +0.0000000000e+00 +0.0000000000e+00 +2.1324190419e+03 2.1347388821e+03 9.9494345401e+01 0.0000e+00 0.0000e+00
      -11  1    3    3    0    0 +7.0049105368e+00 +1.5323532672e+01 +6.1942501443e+01 6.4193090831e+01 5.1100000000e-04 0.0000e+00 1.0000e+00
  9900012  1    3    3    0    0 -7.0049105368e+00 -1.5323532672e+01 +2.0704765404e+03 2.0705457913e+03 1.7000000000e+00 0.0000e+00 -1.0000e+00
<mgrwt>
<rscale>  0 0.99494345E+02</rscale>
<asrwt>0</asrwt>
<pdfrwt beam="1">  1        2 0.30479371E+00 0.99494345E+02</pdfrwt>
<pdfrwt beam="2">  1       -1 0.16570466E-03 0.99494345E+02</pdfrwt>
<totfact> 0.19355315E+05</totfact>
</mgrwt>
</event>
<event>
 5      1 +1.6636760e+00 8.07371200e+01 7.81616400e-03 1.32697300e-01
       -1 -1    0    0    0  501 -0.0000000000e+00 +0.0000000000e+00 +2.0353983082e+00 2.0354045481e+00 5.0400000000e-03 0.0000e+00 1.0000e+00
        2 -1    0    0  501    0 +0.0000000000e+00 -0.0000000000e+00 -8.0063848560e+02 8.0063848560e+02 2.5500000000e-03 0.0000e+00 -1.0000e+00
       24  2    1    2    0    0 +0.0000000000e+00 +0.0000000000e+00 -7.9860308729e+02 8.0267389015e+02 8.0737122193e+01 0.0000e+00 0.0000e+00
      -11  1    3    3    0    0 -9.7722672515e+00 +3.4637509606e+01 -2.1772464376e+02 2.2067912176e+02 5.1100000000e-04 0.0000e+00 1.0000e+00
  9900012  1    3    3    0    0 +9.7722672515e+00 -3.4637509606e+01 -5.8087844353e+02 5.8199476839e+02 1.7000000000e+00 0.0000e+00 -1.0000e+00
<mgrwt>
<rscale>  0 0.80737122E+02</rscale>
<asrwt>0</asrwt>
<pdfrwt beam="2">  1        2 0.11437673E+00 0.80737122E+02</pdfrwt>
<pdfrwt beam="1">  1       -1 0.29077215E-03 0.80737122E+02</pdfrwt>
<totfact> 0.40648348E+05</totfact>
</mgrwt>
</event>
<event>
 5      1 +1.6636760e+00 8.49452600e+01 7.81616400e-03 1.31557600e-01
       -1 -1    0    0    0  501 -0.0000000000e+00 +0.0000000000e+00 +1.2623295791e+00 1.2623396404e+00 5.0400000000e-03 0.0000e+00 1.0000e+00
        2 -1    0    0  501    0 +0.0000000000e+00 -0.0000000000e+00 -1.4290379940e+03 1.4290379940e+03 2.5500000000e-03 0.0000e+00 -1.0000e+00
       24  2    1    2    0    0 +0.0000000000e+00 +0.0000000000e+00 -1.4277756645e+03 1.4303003337e+03 8.4945255935e+01 0.0000e+00 0.0000e+00
      -11  1    3    3    0    0 +3.3872829344e+01 -2.5541342338e+01 -6.8567594896e+02 6.8698707100e+02 5.1100000000e-04 0.0000e+00 1.0000e+00
  9900012  1    3    3    0    0 -3.3872829344e+01 +2.5541342338e+01 -7.4209971549e+02 7.4331326267e+02 1.7000000000e+00 0.0000e+00 -1.0000e+00
<mgrwt>
<rscale>  0 0.84945256E+02</rscale>
<asrwt>0</asrwt>
<pdfrwt beam="2">  1        2 0.20414725E+00 0.84945256E+02</pdfrwt>
<pdfrwt beam="1">  1       -1 0.18033443E-03 0.84945256E+02</pdfrwt>
<totfact> 0.36186590E+05</totfact>
</mgrwt>
</event>
<event>
 5      2 +1.6636760e+00 7.48583800e+01 7.81616400e-03 1.34431000e-01
       -2 -1    0    0    0  501 -0.0000000000e+00 +0.0000000000e+00 +1.6437106663e+00 1.6437126443e+00 2.5500000000e-03 0.0000e+00 1.0000e+00
        1 -1    0    0  501    0 +0.0000000000e+00 -0.0000000000e+00 -8.5230539163e+02 8.5230539164e+02 5.0400000000e-03 0.0000e+00 -1.0000e+00
      -24  2    1    2    0    0 +0.0000000000e+00 +0.0000000000e+00 -8.5066168096e+02 8.5394910429e+02 7.4858381336e+01 0.0000e+00 0.0000e+00
       11  1    3    3    0    0 -3.3050687925e+01 +1.3500855751e+01 -5.5258958683e+02 5.5374170201e+02 5.1100000000e-04 0.0000e+00 -1.0000e+00
  9900012  1    3    3    0    0 +3.3050687925e+01 -1.3500855751e+01 -2.9807209413e+02 3.0020740227e+02 1.7000000000e+00 0.0000e+00 1.0000e+00
<mgrwt>
<rscale>  0 0.74858381E+02</rscale>
<asrwt>0</asrwt>
<pdfrwt beam="2">  1        1 0.12175763E+00 0.74858381E+02</pdfrwt>
<pdfrwt beam="1">  1       -2 0.23481650E-03 0.74858381E+02</pdfrwt>
<totfact> 0.29059662E+05</totfact>
</mgrwt>
</event>
<event>
 5      2 +1.6636760e+00 7.99507500e+01 7.81616400e-03 1.32919100e-01
       -2 -1    0    0    0  501 -0.0000000000e+00 +0.0000000000e+00 +3.2111291521e+02 3.2111291522e+02 2.5500000000e-03 0.0000e+00 1.0000e+00
        1 -1    0    0  501    0 +0.0000000000e+00 -0.0000000000e+00 -4.9765366527e+00 4.9765392049e+00 5.0400000000e-03 0.0000e+00 -1.0000e+00
      -24  2    1    2    0    0 +0.0000000000e+00 +0.0000000000e+00 +3.1613637856e+02 3.2608945443e+02 7.9950750090e+01 0.0000e+00 0.0000e+00
       11  1    3    3    0    0 +7.9458188167e+00 +1.2216328983e+01 +6.2513735575e+00 1.5857313836e+01 5.1100000000e-04 0.0000e+00 -1.0000e+00
  9900012  1    3    3    0    0 -7.9458188167e+00 -1.2216328983e+01 +3.0988500500e+02 3.1023214059e+02 1.7000000000e+00 0.0000e+00 1.0000e+00
<mgrwt>
<rscale>  0 0.79950750E+02</rscale>
<asrwt>0</asrwt>
<pdfrwt beam="2">  1        1 0.71093385E-03 0.79950750E+02</pdfrwt>
<pdfrwt beam="1">  1       -2 0.45873283E-01 0.79950750E+02</pdfrwt>
<totfact> 0.86655471E+04</totfact>
</mgrwt>
</event>
<event>
 5      2 +1.6636760e+00 7.92856800e+01 7.81616400e-03 1.33109100e-01
        1 -1    0    0  501    0 +0.0000000000e+00 +0.0000000000e+00 +3.6724506832e+01 3.6724507178e+01 5.0400000000e-03 0.0000e+00 -1.0000e+00
       -2 -1    0    0    0  501 -0.0000000000e+00 -0.0000000000e+00 -4.2793083878e+01 4.2793083954e+01 2.5500000000e-03 0.0000e+00 1.0000e+00
      -24  2    1    2    0    0 +0.0000000000e+00 +0.0000000000e+00 -6.0685770464e+00 7.9517591132e+01 7.9285683903e+01 0.0000e+00 0.0000e+00
       11  1    3    3    0    0 +1.3588045730e+01 +6.6138060508e-01 +3.4292058439e+01 3.6891973156e+01 5.1100000000e-04 0.0000e+00 -1.0000e+00
  9900012  1    3    3    0    0 -1.3588045730e+01 -6.6138060508e-01 -4.0360635485e+01 4.2625617976e+01 1.7000000000e+00 0.0000e+00 1.0000e+00
<mgrwt>
<rscale>  0 0.79285684E+02</rscale>
<asrwt>0</asrwt>
<pdfrwt beam="1">  1        1 0.52463582E-02 0.79285684E+02</pdfrwt>
<pdfrwt beam="2">  1       -2 0.61132977E-02 0.79285684E+02</pdfrwt>
<totfact> 0.15851434E+05</totfact>
</mgrwt>
</event>
<event>
 5      1 +1.6636760e+00 7.94544700e+01 7.81616400e-03 1.33060700e-01
       -1 -1    0    0    0  501 -0.0000000000e+00 +0.0000000000e+00 +9.1746386526e+02 9.1746386528e+02 5.0400000000e-03 0.0000e+00 1.0000e+00
        2 -1    0    0  501    0 +0.0000000000e+00 -0.0000000000e+00 -1.7202339336e+00 1.7202358236e+00 2.5500000000e-03 0.0000e+00 -1.0000e+00
       24  2    1    2    0    0 +0.0000000000e+00 +0.0000000000e+00 +9.1574363133e+02 9.1918410110e+02 7.9454473729e+01 0.0000e+00 0.0000e+00
      -11  1    3    3    0    0 +2.4849911384e+00 +1.1460250615e+01 +8.9655579184e+02 8.9663247789e+02 5.1100000000e-04 0.0000e+00 1.0000e+00
  9900012  1    3    3    0    0 -2.4849911384e+00 -1.1460250615e+01 +1.9187839484e+01 2.2551623205e+01 1.7000000000e+00 0.0000e+00 -1.0000e+00
<mgrwt>
<rscale>  0 0.79454474E+02</rscale>
<asrwt>0</asrwt>
<pdfrwt beam="2">  1        2 0.24574731E-03 0.79454474E+02</pdfrwt>
<pdfrwt beam="1">  1       -1 0.13106655E+00 0.79454474E+02</pdfrwt>
<totfact> 0.54154679E+04</totfact>
</mgrwt>
</event>
<event>
 5      1 +1.6636760e+00 8.12135800e+01 7.81616400e-03 1.32564200e-01
       -1 -1    0    0    0  501 -0.0000000000e+00 +0.0000000000e+00 +5.7398564365e+01 5.7398564587e+01 5.0400000000e-03 0.0000e+00 1.0000e+00
        2 -1    0    0  501    0 +0.0000000000e+00 -0.0000000000e+00 -2.8727399282e+01 2.8727399395e+01 2.5500000000e-03 0.0000e+00 -1.0000e+00
       24  2    1    2    0    0 +0.0000000000e+00 +0.0000000000e+00 +2.8671165084e+01 8.6125963982e+01 8.1213582390e+01 0.0000e+00 0.0000e+00
      -11  1    3    3    0    0 -3.5067546540e+01 +4.6964285520e+00 +3.5424136052e+01 5.0066542489e+01 5.1100000000e-04 0.0000e+00 1.0000e+00
  9900012  1    3    3    0    0 +3.5067546540e+01 -4.6964285520e+00 -6.7529709683e+00 3.6059421493e+01 1.7000000000e+00 0.0000e+00 -1.0000e+00
<mgrwt>
<rscale>  0 0.81213582E+02</rscale>
<asrwt>0</asrwt>
<pdfrwt beam="2">  1        2 0.41039142E-02 0.81213582E+02</pdfrwt>
<pdfrwt beam="1">  1       -1 0.81997949E-02 0.81213582E+02</pdfrwt>
<totfact> 0.15725302E+05</totfact>
</mgrwt>
</event>
<event>
 5      2 +1.6636760e+00 6.98976100e+01 7.81616400e-03 1.36044200e-01
       -2 -1    0    0    0  501 -0.0000000000e+00 +0.0000000000e+00 +4.5318653344e+01 4.5318653416e+01 2.5500000000e-03 0.0000e+00 1.0000e+00
        1 -1    0    0  501    0 +0.0000000000e+00 -0.0000000000e+00 -2.6951789594e+01 2.6951790065e+01 5.0400000000e-03 0.0000e+00 -1.0000e+00
      -24  2    1    2    0    0 +0.0000000000e+00 +0.0000000000e+00 +1.8366863750e+01 7.2270443481e+01 6.9897605945e+01 0.0000e+00 0.0000e+00
       11  1    3    3    0    0 -8.3280578961e+00 -2.2706695074e+01 -1.6877138979e+01 2.9492174723e+01 5.1100000000e-04 0.0000e+00 -1.0000e+00
  9900012  1    3    3    0    0 +8.3280578961e+00 +2.2706695074e+01 +3.5244002729e+01 4.2778268758e+01 1.7000000000e+00 0.0000e+00 1.0000e+00
<mgrwt>
<rscale>  0 0.69897606E+02</rscale>
<asrwt>0</asrwt>
<pdfrwt beam="2">  1        1 0.38502557E-02 0.69897606E+02</pdfrwt>
<pdfrwt beam="1">  1       -2 0.64740934E-02 0.69897606E+02</pdfrwt>
<totfact> 0.21530527E+05</totfact>
</mgrwt>
</event>
<event>
 5      2 +1.6636760e+00 7.86841800e+01 7.81616400e-03 1.33282800e-01
       -2 -1    0    0    0  501 -0.0000000000e+00 +0.0000000000e+00 +2.4034964757e+00 2.4034978285e+00 2.5500000000e-03 0.0000e+00 1.0000e+00
        1 -1    0    0  501    0 +0.0000000000e+00 -0.0000000000e+00 -6.4397831234e+02 6.4397831236e+02 5.0400000000e-03 0.0000e+00 -1.0000e+00
      -24  2    1    2    0    0 +0.0000000000e+00 +0.0000000000e+00 -6.4157481587e+02 6.4638181019e+02 7.8684180055e+01 0.0000e+00 0.0000e+00
       11  1    3    3    0    0 +3.5252256366e+01 -1.7367945806e+01 -3.3222113964e+02 3.3453737122e+02 5.1100000000e-04 0.0000e+00 -1.0000e+00
  9900012  1    3    3    0    0 -3.5252256366e+01 +1.7367945806e+01 -3.0935367623e+02 3.1184443897e+02 1.7000000000e+00 0.0000e+00 1.0000e+00
<mgrwt>
<rscale>  0 0.78684180E+02</rscale>
<asrwt>0</asrwt>
<pdfrwt beam="2">  1        1 0.91996792E-01 0.78684180E+02</pdfrwt>
<pdfrwt beam="1">  1       -2 0.34335715E-03 0.78684180E+02</pdfrwt>
<totfact> 0.25578667E+05</totfact>
</mgrwt>
</event>
<event>
 5      2 +1.6636760e+00 9.75196100e+01 7.81616400e-03 1.28560000e-01
        1 -1    0    0  501    0 +0.0000000000e+00 +0.0000000000e+00 +6.3298379295e+01 6.3298379496e+01 5.0400000000e-03 0.0000e+00 -1.0000e+00
       -2 -1    0    0    0  501 -0.0000000000e+00 -0.0000000000e+00 -3.7560493626e+01 3.7560493712e+01 2.5500000000e-03 0.0000e+00 1.0000e+00
      -24  2    1    2    0    0 +0.0000000000e+00 +0.0000000000e+00 +2.5737885670e+01 1.0085887321e+02 9.7519605958e+01 0.0000e+00 0.0000e+00
       11  1    3    3    0    0 -3.2873260382e+01 +1.4042827007e+01 +4.7139215711e+01 5.9160441991e+01 5.1100000000e-04 0.0000e+00 -1.0000e+00
  9900012  1    3    3    0    0 +3.2873260382e+01 -1.4042827007e+01 -2.1401330041e+01 4.1698431218e+01 1.7000000000e+00 0.0000e+00 1.0000e+00
<mgrwt>
<rscale>  0 0.97519606E+02</rscale>
<asrwt>0</asrwt>
<pdfrwt beam="1">  1        1 0.90426257E-02 0.97519606E+02</pdfrwt>
<pdfrwt beam="2">  1       -2 0.53657848E-02 0.97519606E+02</pdfrwt>
<totfact> 0.96658010E+04</totfact>
</mgrwt>
</event>
<event>
 5      1 +1.6636760e+00 7.64660800e+01 7.81616400e-03 1.33939000e-01
        4 -1    0    0  501    0 +0.0000000000e+00 +0.0000000000e+00 +6.1171624299e+00 6.2476056369e+00 1.2700000000e+00 0.0000e+00 -1.0000e+00
       -3 -1    0    0    0  501 -0.0000000000e+00 -0.0000000000e+00 -2.3637477127e+02 2.3637479285e+02 1.0100000000e-01 0.0000e+00 1.0000e+00
       24  2    1    2    0    0 +0.0000000000e+00 +0.0000000000e+00 -2.3025760884e+02 2.4262239849e+02 7.6466082794e+01 0.0000e+00 0.0000e+00
      -11  1    3    3    0    0 +2.9751352861e+01 -1.6908484242e+01 -6.1105682012e+01 7.0035306887e+01 5.1100000000e-04 0.0000e+00 1.0000e+00
  9900012  1    3    3    0    0 -2.9751352861e+01 +1.6908484242e+01 -1.6915192683e+02 1.7258709160e+02 1.7000000000e+00 0.0000e+00 -1.0000e+00
<mgrwt>
<rscale>  0 0.76466083E+02</rscale>
<asrwt>0</asrwt>
<pdfrwt beam="1">  1        4 0.88344156E-03 0.76466083E+02</pdfrwt>
<pdfrwt beam="2">  1       -3 0.33767879E-01 0.76466083E+02</pdfrwt>
<totfact> 0.49067140E+04</totfact>
</mgrwt>
</event>
<event>
 5      2 +1.6636760e+00 8.03157600e+01 7.81616400e-03 1.32815800e-01
       -2 -1    0    0    0  501 -0.0000000000e+00 +0.0000000000e+00 +9.2434471719e+01 9.2434471754e+01 2.5500000000e-03 0.0000e+00 1.0000e+00
        1 -1    0    0  501    0 +0.0000000000e+00 -0.0000000000e+00 -1.7446472239e+01 1.7446472967e+01 5.0400000000e-03 0.0000e+00 -1.0000e+00
      -24  2    1    2    0    0 +0.0000000000e+00 +0.0000000000e+00 +7.4987999480e+01 1.0988094472e+02 8.0315764000e+01 0.0000e+00 0.0000e+00
       11  1    3    3    0    0 +1.1661042767e+01 -3.2402516579e+01 +9.2626425433e+00 3.5660896598e+01 5.1100000000e-04 0.0000e+00 -1.0000e+00
  9900012  1    3    3    0    0 -1.1661042767e+01 +3.2402516579e+01 +6.5725356937e+01 7.4220048124e+01 1.7000000000e+00 0.0000e+00 1.0000e+00
<mgrwt>
<rscale>  0 0.80315764E+02</rscale>
<asrwt>0</asrwt>
<pdfrwt beam="2">  1        1 0.24923532E-02 0.80315764E+02</pdfrwt>
<pdfrwt beam="1">  1       -2 0.13204925E-01 0.80315764E+02</pdfrwt>
<totfact> 0.13339781E+05</totfact>
</mgrwt>
</event>
<event>
 5      1 +1.6636760e+00 7.88629400e+01 7.81616400e-03 1.33231000e-01
       -3 -1    0    0    0  501 -0.0000000000e+00 +0.0000000000e+00 +8.2314991315e+01 8.2315053278e+01 1.0100000000e-01 0.0000e+00 1.0000e+00
        4 -1    0    0  501    0 +0.0000000000e+00 -0.0000000000e+00 -1.8862624695e+01 1.8905330211e+01 1.2700000000e+00 0.0000e+00 -1.0000e+00
       24  2    1    2    0    0 +0.0000000000e+00 +0.0000000000e+00 +6.3452366620e+01 1.0122038349e+02 7.8862939356e+01 0.0000e+00 0.0000e+00
      -11  1    3    3    0    0 -8.1471238186e-01 -3.9383653217e+01 +3.0057650685e+01 4.9549957234e+01 5.1100000000e-04 0.0000e+00 1.0000e+00
  9900012  1    3    3    0    0 +8.1471238186e-01 +3.9383653217e+01 +3.3394715935e+01 5.1670426255e+01 1.7000000000e+00 0.0000e+00 -1.0000e+00
<mgrwt>
<rscale>  0 0.78862939E+02</rscale>
<asrwt>0</asrwt>
<pdfrwt beam="2">  1        4 0.26984107E-02 0.78862939E+02</pdfrwt>
<pdfrwt beam="1">  1       -3 0.11759309E-01 0.78862939E+02</pdfrwt>
<totfact> 0.57743484E+04</totfact>
</mgrwt>
</event>
<event>
 5      2 +1.6636760e+00 8.02512500e+01 7.81616400e-03 1.32834000e-01
        3 -1    0    0  501    0 +0.0000000000e+00 +0.0000000000e+00 +1.7837213283e+01 1.7837499228e+01 1.0100000000e-01 0.0000e+00 -1.0000e+00
       -4 -1    0    0    0  501 -0.0000000000e+00 -0.0000000000e+00 -9.0236485626e+01 9.0245422255e+01 1.2700000000e+00 0.0000e+00 1.0000e+00
      -24  2    1    2    0    0 +0.0000000000e+00 +0.0000000000e+00 -7.2399272343e+01 1.0808292148e+02 8.0251250960e+01 0.0000e+00 0.0000e+00
       11  1    3    3    0    0 +1.9539863166e+00 +2.7998328451e+01 +2.4043632877e+00 2.8169228276e+01 5.1100000000e-04 0.0000e+00 -1.0000e+00
  9900012  1    3    3    0    0 -1.9539863166e+00 -2.7998328451e+01 -7.4803635630e+01 7.9913693208e+01 1.7000000000e+00 0.0000e+00 1.0000e+00
<mgrwt>
<rscale>  0 0.80251251E+02</rscale>
<asrwt>0</asrwt>
<pdfrwt beam="1">  1        3 0.25481980E-02 0.80251251E+02</pdfrwt>
<pdfrwt beam="2">  1       -4 0.12894793E-01 0.80251251E+02</pdfrwt>
<totfact> 0.52028272E+04</totfact>
</mgrwt>
</event>
<event>
 5      2 +1.6636760e+00 7.52980200e+01 7.81616400e-03 1.34295100e-01
        1 -1    0    0  501    0 +0.0000000000e+00 +0.0000000000e+00 +1.3949997981e+03 1.3949997981e+03 5.0400000000e-03 0.0000e+00 -1.0000e+00
       -2 -1    0    0    0  501 -0.0000000000e+00 -0.0000000000e+00 -1.0160902733e+00 1.0160934730e+00 2.5500000000e-03 0.0000e+00 1.0000e+00
      -24  2    1    2    0    0 +0.0000000000e+00 +0.0000000000e+00 +1.3939837078e+03 1.3960158916e+03 7.5298020316e+01 0.0000e+00 0.0000e+00
       11  1    3    3    0    0 +3.8752025484e+00 -2.3219101504e+01 +1.2409199120e+03 1.2411431714e+03 5.1100000000e-04 0.0000e+00 -1.0000e+00
  9900012  1    3    3    0    0 -3.8752025484e+00 +2.3219101504e+01 +1.5306379585e+02 1.5487272022e+02 1.7000000000e+00 0.0000e+00 1.0000e+00
<mgrwt>
<rscale>  0 0.75298020E+02</rscale>
<asrwt>0</asrwt>
<pdfrwt beam="1">  1        1 0.19928626E+00 0.75298020E+02</pdfrwt>
<pdfrwt beam="2">  1       -2 0.14515556E-03 0.75298020E+02</pdfrwt>
<totfact> 0.24748341E+05</totfact>
</mgrwt>
</event>
<event>
 5      2 +1.6636760e+00 8.08307600e+01 7.81616400e-03 1.32671000e-01
       -2 -1    0    0    0  501 -0.0000000000e+00 +0.0000000000e+00 +4.7118098617e+00 4.7118105517e+00 2.5500000000e-03 0.0000e+00 1.0000e+00
        1 -1    0    0  501    0 +0.0000000000e+00 -0.0000000000e+00 -3.4666144950e+02 3.4666144954e+02 5.0400000000e-03 0.0000e+00 -1.0000e+00
      -24  2    1    2    0    0 +0.0000000000e+00 +0.0000000000e+00 -3.4194963964e+02 3.5137326009e+02 8.0830760583e+01 0.0000e+00 0.0000e+00
       11  1    3    3    0    0 -3.8487151521e+01 -4.7609574472e+00 -2.2008606013e+02 2.2347662386e+02 5.1100000000e-04 0.0000e+00 -1.0000e+00
  9900012  1    3    3    0    0 +3.8487151521e+01 +4.7609574472e+00 -1.2186357951e+02 1.2789663623e+02 1.7000000000e+00 0.0000e+00 1.0000e+00
<mgrwt>
<rscale>  0 0.80830761E+02</rscale>
<asrwt>0</asrwt>
<pdfrwt beam="2">  1        1 0.49523048E-01 0.80830761E+02</pdfrwt>
<pdfrwt beam="1">  1       -2 0.67311597E-03 0.80830761E+02</pdfrwt>
<totfact> 0.21906305E+05</totfact>
</mgrwt>
</event>
<event>
 5      1 +1.6636760e+00 7.93811000e+01 7.81616400e-03 1.33081700e-01
       -1 -1    0    0    0  501 -0.0000000000e+00 +0.0000000000e+00 +1.6620219676e+02 1.6620219684e+02 5.0400000000e-03 0.0000e+00 1.0000e+00
        2 -1    0    0  501    0 +0.0000000000e+00 -0.0000000000e+00 -9.4784519877e+00 9.4784523307e+00 2.5500000000e-03 0.0000e+00 -1.0000e+00
       24  2    1    2    0    0 +0.0000000000e+00 +0.0000000000e+00 +1.5672374477e+02 1.7568064917e+02 7.9381095459e+01 0.0000e+00 0.0000e+00
      -11  1    3    3    0    0 -1.5924760115e+01 +9.4579089258e+00 +1.5597004068e+02 1.5706592124e+02 5.1100000000e-04 0.0000e+00 1.0000e+00
  9900012  1    3    3    0    0 +1.5924760115e+01 -9.4579089258e+00 +7.5370409620e-01 1.8614727928e+01 1.7000000000e+00 0.0000e+00 -1.0000e+00
<mgrwt>
<rscale>  0 0.79381095E+02</rscale>
<asrwt>0</asrwt>
<pdfrwt beam="2">  1        2 0.13540647E-02 0.79381095E+02</pdfrwt>
<pdfrwt beam="1">  1       -1 0.23743170E-01 0.79381095E+02</pdfrwt>
<totfact> 0.13348192E+05</totfact>
</mgrwt>
</event>
<event>
 5      1 +1.6636760e+00 8.18771200e+01 7.81616400e-03 1.32380700e-01
       -1 -1    0    0    0  501 -0.0000000000e+00 +0.0000000000e+00 +6.7972376232e-01 6.7974244730e-01 5.0400000000e-03 0.0000e+00 1.0000e+00
        2 -1    0    0  501    0 +0.0000000000e+00 -0.0000000000e+00 -2.4656228762e+03 2.4656228762e+03 2.5500000000e-03 0.0000e+00 -1.0000e+00
       24  2    1    2    0    0 +0.0000000000e+00 +0.0000000000e+00 -2.4649431524e+03 2.4663026186e+03 8.1877115262e+01 0.0000e+00 0.0000e+00
      -11  1    3    3    0    0 -2.8773683055e+01 -2.7247271161e+01 -9.2448596356e+02 9.2533487746e+02 5.1100000000e-04 0.0000e+00 1.0000e+00
  9900012  1    3    3    0    0 +2.8773683055e+01 +2.7247271161e+01 -1.5404571889e+03 1.5409677412e+03 1.7000000000e+00 0.0000e+00 -1.0000e+00
<mgrwt>
<rscale>  0 0.81877115E+02</rscale>
<asrwt>0</asrwt>
<pdfrwt beam="2">  1        2 0.35222611E+00 0.81877115E+02</pdfrwt>
<pdfrwt beam="1">  1       -1 0.97106310E-04 0.81877115E+02</pdfrwt>
<totfact> 0.27545320E+05</totfact>
</mgrwt>
</event>
<event>
 5      1 +1.6636760e+00 7.97573300e+01 7.81616400e-03 1.32974200e-01
       -1 -1    0    0    0  501 -0.0000000000e+00 +0.0000000000e+00 +1.5002156042e+01 1.5002156889e+01 5.0400000000e-03 0.0000e+00 1.0000e+00
        2 -1    0    0  501    0 +0.0000000000e+00 -0.0000000000e+00 -1.0600529194e+02 1.0600529198e+02 2.5500000000e-03 0.0000e+00 -1.0000e+00
       24  2    1    2    0    0 +0.0000000000e+00 +0.0000000000e+00 -9.1003135903e+01 1.2100744886e+02 7.9757331554e+01 0.0000e+00 0.0000e+00
      -11  1    3    3    0    0 +4.4490871281e+00 -3.8147432936e+01 -2.9292891539e+01 4.8302117043e+01 5.1100000000e-04 0.0000e+00 1.0000e+00
  9900012  1    3    3    0    0 -4.4490871281e+00 +3.8147432936e+01 -6.1710244364e+01 7.2705331822e+01 1.7000000000e+00 0.0000e+00 -1.0000e+00
<mgrwt>
<rscale>  0 0.79757332E+02</rscale>
<asrwt>0</asrwt>
<pdfrwt beam="2">  1        2 0.15143613E-01 0.79757332E+02</pdfrwt>
<pdfrwt beam="1">  1       -1 0.21431653E-02 0.79757332E+02</pdfrwt>
<totfact> 0.21979080E+05</totfact>
</mgrwt>
</event>
<event>
 5      1 +1.6636760e+00 8.00750000e+01 7.81616400e-03 1.32883900e-01
        2 -1    0    0  501    0 +0.0000000000e+00 +0.0000000000e+00 +7.9937646685e+02 7.9937646686e+02 2.5500000000e-03 0.0000e+00 -1.0000e+00
       -3 -1    0    0    0  501 -0.0000000000e+00 -0.0000000000e+00 -2.0040396657e+00 2.0065831609e+00 1.0100000000e-01 0.0000e+00 1.0000e+00
       24  2    1    2    0    0 +0.0000000000e+00 +0.0000000000e+00 +7.9737242719e+02 8.0138305002e+02 8.0074997456e+01 0.0000e+00 0.0000e+00
      -11  1    3    3    0    0 -5.2255968290e+00 +3.7956150272e+01 +2.8283814560e+02 2.8542143019e+02 5.1100000000e-04 0.0000e+00 1.0000e+00
  9900012  1    3    3    0    0 +5.2255968290e+00 -3.7956150272e+01 +5.1453428159e+02 5.1596161983e+02 1.7000000000e+00 0.0000e+00 -1.0000e+00
<mgrwt>
<rscale>  0 0.80074997E+02</rscale>
<asrwt>0</asrwt>
<pdfrwt beam="1">  1        2 0.11419670E+00 0.80074997E+02</pdfrwt>
<pdfrwt beam="2">  1       -3 0.28647337E-03 0.80074997E+02</pdfrwt>
<totfact> 0.35628072E+05</totfact>
</mgrwt>
</event>
<event>
 5      2 +1.6636760e+00 7.90263400e+01 7.81616400e-03 1.33183700e-01
        1 -1    0    0  501    0 +0.0000000000e+00 +0.0000000000e+00 +1.5022261920e+03 1.5022261920e+03 5.0400000000e-03 0.0000e+00 -1.0000e+00
       -2 -1    0    0    0  501 -0.0000000000e+00 -0.0000000000e+00 -1.0393162801e+00 1.0393194084e+00 2.5500000000e-03 0.0000e+00 1.0000e+00
      -24  2    1    2    0    0 +0.0000000000e+00 +0.0000000000e+00 +1.5011868757e+03 1.5032655114e+03 7.9026337266e+01 0.0000e+00 0.0000e+00
       11  1    3    3    0    0 +3.3304798426e+01 +1.9905831627e+01 +8.9054029969e+02 8.9138514521e+02 5.1100000000e-04 0.0000e+00 -1.0000e+00
  9900012  1    3    3    0    0 -3.3304798426e+01 -1.9905831627e+01 +6.1064657604e+02 6.1188036622e+02 1.7000000000e+00 0.0000e+00 1.0000e+00
<mgrwt>
<rscale>  0 0.79026337E+02</rscale>
<asrwt>0</asrwt>
<pdfrwt beam="1">  1        1 0.21460571E+00 0.79026337E+02</pdfrwt>
<pdfrwt beam="2">  1       -2 0.14847262E-03 0.79026337E+02</pdfrwt>
<totfact> 0.20836439E+05</totfact>
</mgrwt>
</event>
<event>
 5      1 +1.6636760e+00 8.01977800e+01 7.81616400e-03 1.32849100e-01
        2 -1    0    0  501    0 +0.0000000000e+00 +0.0000000000e+00 +8.1984378282e+02 8.1984378283e+02 2.5500000000e-03 0.0000e+00 -1.0000e+00
       -1 -1    0    0    0  501 -0.0000000000e+00 -0.0000000000e+00 -1.9612494011e+00 1.9612558770e+00 5.0400000000e-03 0.0000e+00 1.0000e+00
       24  2    1    2    0    0 +0.0000000000e+00 +0.0000000000e+00 +8.1788253342e+02 8.2180503871e+02 8.0197775297e+01 0.0000e+00 0.0000e+00
      -11  1    3    3    0    0 -2.9204275616e+01 +1.2403080695e+00 +1.2774266440e+02 1.3104432985e+02 5.1100000000e-04 0.0000e+00 1.0000e+00
  9900012  1    3    3    0    0 +2.9204275616e+01 -1.2403080695e+00 +6.9013986903e+02 6.9076070885e+02 1.7000000000e+00 0.0000e+00 -1.0000e+00
<mgrwt>
<rscale>  0 0.80197775E+02</rscale>
<asrwt>0</asrwt>
<pdfrwt beam="1">  1        2 0.11712075E+00 0.80197775E+02</pdfrwt>
<pdfrwt beam="2">  1       -1 0.28017844E-03 0.80197775E+02</pdfrwt>
<totfact> 0.41554768E+05</totfact>
</mgrwt>
</event>
<event>
 5      1 +1.6636760e+00 8.10991400e+01 7.81616400e-03 1.32596100e-01
       -1 -1    0    0    0  501 -0.0000000000e+00 +0.0000000000e+00 +1.3334159487e+00 1.3334254737e+00 5.0400000000e-03 0.0000e+00 1.0000e+00
        2 -1    0    0  501    0 +0.0000000000e+00 -0.0000000000e+00 -1.2331199942e+03 1.2331199942e+03 2.5500000000e-03 0.0000e+00 -1.0000e+00
       24  2    1    2    0    0 +0.0000000000e+00 +0.0000000000e+00 -1.2317865782e+03 1.2344534197e+03 8.1099142970e+01 0.0000e+00 0.0000e+00
      -11  1    3    3    0    0 +2.7917395263e+01 +2.6982354776e+00 -1.7023690691e+02 1.7253192722e+02 5.1100000000e-04 0.0000e+00 1.0000e+00
  9900012  1    3    3    0    0 -2.7917395263e+01 -2.6982354776e+00 -1.0615496713e+03 1.0619214925e+03 1.7000000000e+00 0.0000e+00 -1.0000e+00
<mgrwt>
<rscale>  0 0.81099143E+02</rscale>
<asrwt>0</asrwt>
<pdfrwt beam="2">  1        2 0.17615927E+00 0.81099143E+02</pdfrwt>
<pdfrwt beam="1">  1       -1 0.19048946E-03 0.81099143E+02</pdfrwt>
<totfact> 0.41670898E+05</totfact>
</mgrwt>
</event>
<event>
 5      1 +1.6636760e+00 8.05660200e+01 7.81616400e-03 1.32745300e-01
       -1 -1    0    0    0  501 -0.0000000000e+00 +0.0000000000e+00 +1.7618108043e+00 1.7618180132e+00 5.0400000000e-03 0.0000e+00 1.0000e+00
        2 -1    0    0  501    0 +0.0000000000e+00 -0.0000000000e+00 -9.2105102431e+02 9.2105102432e+02 2.5500000000e-03 0.0000e+00 -1.0000e+00
       24  2    1    2    0    0 +0.0000000000e+00 +0.0000000000e+00 -9.1928921351e+02 9.2281284233e+02 8.0566021965e+01 0.0000e+00 0.0000e+00
      -11  1    3    3    0    0 -1.8406067040e+00 +1.5815526776e+01 -3.5829886480e+01 3.9208410904e+01 5.1100000000e-04 0.0000e+00 1.0000e+00
  9900012  1    3    3    0    0 +1.8406067040e+00 -1.5815526776e+01 -8.8345932703e+02 8.8360443143e+02 1.7000000000e+00 0.0000e+00 -1.0000e+00
<mgrwt>
<rscale>  0 0.80566022E+02</rscale>
<asrwt>0</asrwt>
<pdfrwt beam="2">  1        2 0.13157841E+00 0.80566022E+02</pdfrwt>
<pdfrwt beam="1">  1       -1 0.25168836E-03 0.80566022E+02</pdfrwt>
<totfact> 0.41864527E+05</totfact>
</mgrwt>
</event>
<event>
 5      1 +1.6636760e+00 8.02618600e+01 7.81616400e-03 1.32831000e-01
        2 -1    0    0  501    0 +0.0000000000e+00 +0.0000000000e+00 +1.0499267489e+01 1.0499267799e+01 2.5500000000e-03 0.0000e+00 -1.0000e+00
       -1 -1    0    0    0  501 -0.0000000000e+00 -0.0000000000e+00 -1.5339083931e+02 1.5339083939e+02 5.0400000000e-03 0.0000e+00 1.0000e+00
       24  2    1    2    0    0 +0.0000000000e+00 +0.0000000000e+00 -1.4289157182e+02 1.6389010719e+02 8.0261858551e+01 0.0000e+00 0.0000e+00
      -11  1    3    3    0    0 -1.1992496025e+01 -1.8854624683e+00 -1.4948091048e+02 1.4997305601e+02 5.1100000000e-04 0.0000e+00 1.0000e+00
  9900012  1    3    3    0    0 +1.1992496025e+01 +1.8854624683e+00 +6.5893386620e+00 1.3917051183e+01 1.7000000000e+00 0.0000e+00 -1.0000e+00
<mgrwt>
<rscale>  0 0.80261859E+02</rscale>
<asrwt>0</asrwt>
<pdfrwt beam="1">  1        2 0.14998955E-02 0.80261859E+02</pdfrwt>
<pdfrwt beam="2">  1       -1 0.21912976E-01 0.80261859E+02</pdfrwt>
<totfact> 0.13242085E+05</totfact>
</mgrwt>
</event>
<event>
 5      1 +1.6636760e+00 8.00701200e+01 7.81616400e-03 1.32885300e-01
        2 -1    0    0  501    0 +0.0000000000e+00 +0.0000000000e+00 +1.8883571860e+01 1.8883572033e+01 2.5500000000e-03 0.0000e+00 -1.0000e+00
       -1 -1    0    0    0  501 -0.0000000000e+00 -0.0000000000e+00 -8.4878333707e+01 8.4878333857e+01 5.0400000000e-03 0.0000e+00 1.0000e+00
       24  2    1    2    0    0 +0.0000000000e+00 +0.0000000000e+00 -6.5994761847e+01 1.0376190589e+02 8.0070122534e+01 0.0000e+00 0.0000e+00
      -11  1    3    3    0    0 +4.0867570872e+00 +8.8871010047e-01 -8.4556079934e+01 8.4659447454e+01 5.1100000000e-04 0.0000e+00 1.0000e+00
  9900012  1    3    3    0    0 -4.0867570872e+00 -8.8871010047e-01 +1.8561318087e+01 1.9102458435e+01 1.7000000000e+00 0.0000e+00 -1.0000e+00
<mgrwt>
<rscale>  0 0.80070123E+02</rscale>
<asrwt>0</asrwt>
<pdfrwt beam="1">  1        2 0.26976532E-02 0.80070123E+02</pdfrwt>
<pdfrwt beam="2">  1       -1 0.12125476E-01 0.80070123E+02</pdfrwt>
<totfact> 0.15121270E+05</totfact>
</mgrwt>
</event>
<event>
 5      1 +1.6636760e+00 7.99702600e+01 7.81616400e-03 1.32913600e-01
       -1 -1    0    0    0  501 -0.0000000000e+00 +0.0000000000e+00 +6.7245869703e+00 6.7245888590e+00 5.0400000000e-03 0.0000e+00 1.0000e+00
        2 -1    0    0  501    0 +0.0000000000e+00 -0.0000000000e+00 -2.3775594755e+02 2.3775594756e+02 2.5500000000e-03 0.0000e+00 -1.0000e+00
       24  2    1    2    0    0 +0.0000000000e+00 +0.0000000000e+00 -2.3103136058e+02 2.4448053642e+02 7.9970263962e+01 0.0000e+00 0.0000e+00
      -11  1    3    3    0    0 -3.8742971108e+01 -6.5307318216e+00 -1.3786585887e+02 1.4335502542e+02 5.1100000000e-04 0.0000e+00 1.0000e+00
  9900012  1    3    3    0    0 +3.8742971108e+01 +6.5307318216e+00 -9.3165501701e+01 1.0112551100e+02 1.7000000000e+00 0.0000e+00 -1.0000e+00
<mgrwt>
<rscale>  0 0.79970264E+02</rscale>
<asrwt>0</asrwt>
<pdfrwt beam="2">  1        2 0.33965130E-01 0.79970264E+02</pdfrwt>
<pdfrwt beam="1">  1       -1 0.96065557E-03 0.79970264E+02</pdfrwt>
<totfact> 0.28154287E+05</totfact>
</mgrwt>
</event>
<event>
 5      1 +1.6636760e+00 7.95718200e+01 7.81616400e-03 1.33027100e-01
        2 -1    0    0  501    0 +0.0000000000e+00 +0.0000000000e+00 +7.5083583553e+01 7.5083583597e+01 2.5500000000e-03 0.0000e+00 -1.0000e+00
       -1 -1    0    0    0  501 -0.0000000000e+00 -0.0000000000e+00 -2.1082087473e+01 2.1082088075e+01 5.0400000000e-03 0.0000e+00 1.0000e+00
       24  2    1    2    0    0 +0.0000000000e+00 +0.0000000000e+00 +5.4001496081e+01 9.6165671672e+01 7.9571821829e+01 0.0000e+00 0.0000e+00
      -11  1    3    3    0    0 +2.4235526808e+01 +1.3608109303e+01 -7.3845371889e+00 2.8758873209e+01 5.1100000000e-04 0.0000e+00 1.0000e+00
  9900012  1    3    3    0    0 -2.4235526808e+01 -1.3608109303e+01 +6.1386033270e+01 6.7406798463e+01 1.7000000000e+00 0.0000e+00 -1.0000e+00
<mgrwt>
<rscale>  0 0.79571822E+02</rscale>
<asrwt>0</asrwt>
<pdfrwt beam="1">  1        2 0.10726226E-01 0.79571822E+02</pdfrwt>
<pdfrwt beam="2">  1       -1 0.30117268E-02 0.79571822E+02</pdfrwt>
<totfact> 0.20254373E+05</totfact>
</mgrwt>
</event>
<event>
 5      1 +1.6636760e+00 7.97620700e+01 7.81616400e-03 1.32972800e-01
        2 -1    0    0  501    0 +0.0000000000e+00 +0.0000000000e+00 +4.1763280768e+02 4.1763280769e+02 2.5500000000e-03 0.0000e+00 -1.0000e+00
       -1 -1    0    0    0  501 -0.0000000000e+00 -0.0000000000e+00 -3.8083608630e+00 3.8083641980e+00 5.0400000000e-03 0.0000e+00 1.0000e+00
       24  2    1    2    0    0 +0.0000000000e+00 +0.0000000000e+00 +4.1382444682e+02 4.2144117189e+02 7.9762074804e+01 0.0000e+00 0.0000e+00
      -11  1    3    3    0    0 +3.4619833229e+00 +2.2423384790e+01 +3.3639317953e+01 4.0575820713e+01 5.1100000000e-04 0.0000e+00 1.0000e+00
  9900012  1    3    3    0    0 -3.4619833229e+00 -2.2423384790e+01 +3.8018512887e+02 3.8086535118e+02 1.7000000000e+00 0.0000e+00 -1.0000e+00
<mgrwt>
<rscale>  0 0.79762075E+02</rscale>
<asrwt>0</asrwt>
<pdfrwt beam="1">  1        2 0.59661790E-01 0.79762075E+02</pdfrwt>
<pdfrwt beam="2">  1       -1 0.54405215E-03 0.79762075E+02</pdfrwt>
<totfact> 0.34642130E+05</totfact>
</mgrwt>
</event>
<event>
 5      1 +1.6636760e+00 8.02490600e+01 7.81616400e-03 1.32834600e-01
       -1 -1    0    0    0  501 -0.0000000000e+00 +0.0000000000e+00 +3.5984612820e+00 3.5984648115e+00 5.0400000000e-03 0.0000e+00 1.0000e+00
        2 -1    0    0  501    0 +0.0000000000e+00 -0.0000000000e+00 -4.4740711176e+02 4.4740711176e+02 2.5500000000e-03 0.0000e+00 -1.0000e+00
       24  2    1    2    0    0 +0.0000000000e+00 +0.0000000000e+00 -4.4380865047e+02 4.5100557657e+02 8.0249061465e+01 0.0000e+00 0.0000e+00
      -11  1    3    3    0    0 +1.6761878523e+00 -4.0065934800e+01 -2.1805756762e+02 2.2171421139e+02 5.1100000000e-04 0.0000e+00 1.0000e+00
  9900012  1    3    3    0    0 -1.6761878523e+00 +4.0065934800e+01 -2.2575108286e+02 2.2929136518e+02 1.7000000000e+00 0.0000e+00 -1.0000e+00
<mgrwt>
<rscale>  0 0.80249061E+02</rscale>
<asrwt>0</asrwt>
<pdfrwt beam="2">  1        2 0.63915266E-01 0.80249061E+02</pdfrwt>
<pdfrwt beam="1">  1       -1 0.51406644E-03 0.80249061E+02</pdfrwt>
<totfact> 0.34922158E+05</totfact>
</mgrwt>
</event>
<event>
 5      1 +1.6636760e+00 8.06976900e+01 7.81616400e-03 1.32708300e-01
       -1 -1    0    0    0  501 -0.0000000000e+00 +0.0000000000e+00 +7.0546977604e+00 7.0546995608e+00 5.0400000000e-03 0.0000e+00 1.0000e+00
        2 -1    0    0  501    0 +0.0000000000e+00 -0.0000000000e+00 -2.3077236052e+02 2.3077236053e+02 2.5500000000e-03 0.0000e+00 -1.0000e+00
       24  2    1    2    0    0 +0.0000000000e+00 +0.0000000000e+00 -2.2371766276e+02 2.3782706009e+02 8.0697694407e+01 0.0000e+00 0.0000e+00
      -11  1    3    3    0    0 +2.9979856882e+01 +2.6968454523e+01 -1.0973478894e+02 1.1690942332e+02 5.1100000000e-04 0.0000e+00 1.0000e+00
  9900012  1    3    3    0    0 -2.9979856882e+01 -2.6968454523e+01 -1.1398287382e+02 1.2091763677e+02 1.7000000000e+00 0.0000e+00 -1.0000e+00
<mgrwt>
<rscale>  0 0.80697694E+02</rscale>
<asrwt>0</asrwt>
<pdfrwt beam="2">  1        2 0.32967475E-01 0.80697694E+02</pdfrwt>
<pdfrwt beam="1">  1       -1 0.10078142E-02 0.80697694E+02</pdfrwt>
<totfact> 0.27208089E+05</totfact>
</mgrwt>
</event>
<event>
 5      2 +1.6636760e+00 9.23915300e+01 7.81616400e-03 1.29716100e-01
       -2 -1    0    0    0  501 -0.0000000000e+00 +0.0000000000e+00 +1.0758376206e+02 1.0758376209e+02 2.5500000000e-03 0.0000e+00 1.0000e+00
        1 -1    0    0  501    0 +0.0000000000e+00 -0.0000000000e+00 -1.9836160792e+01 1.9836161433e+01 5.0400000000e-03 0.0000e+00 -1.0000e+00
      -24  2    1    2    0    0 +0.0000000000e+00 +0.0000000000e+00 +8.7747601263e+01 1.2741992352e+02 9.2391533065e+01 0.0000e+00 0.0000e+00
       11  1    3    3    0    0 -2.7837319633e+01 +1.0879113288e+01 -4.6921568907e+00 3.0253723851e+01 5.1100000000e-04 0.0000e+00 -1.0000e+00
  9900012  1    3    3    0    0 +2.7837319633e+01 -1.0879113288e+01 +9.2439758154e+01 9.7166199668e+01 1.7000000000e+00 0.0000e+00 1.0000e+00
<mgrwt>
<rscale>  0 0.92391533E+02</rscale>
<asrwt>0</asrwt>
<pdfrwt beam="2">  1        1 0.28337373E-02 0.92391533E+02</pdfrwt>
<pdfrwt beam="1">  1       -2 0.15369109E-01 0.92391533E+02</pdfrwt>
<totfact> 0.89861584E+04</totfact>
</mgrwt>
</event>
<event>
 5      2 +1.6636760e+00 8.53842200e+01 7.81616400e-03 1.31443100e-01
       -2 -1    0    0    0  501 -0.0000000000e+00 +0.0000000000e+00 +1.9724674421e+00 1.9724690904e+00 2.5500000000e-03 0.0000e+00 1.0000e+00
        1 -1    0    0  501    0 +0.0000000000e+00 -0.0000000000e+00 -9.2402812437e+02 9.2402812438e+02 5.0400000000e-03 0.0000e+00 -1.0000e+00
      -24  2    1    2    0    0 +0.0000000000e+00 +0.0000000000e+00 -9.2205565693e+02 9.2600059347e+02 8.5384217756e+01 0.0000e+00 0.0000e+00
       11  1    3    3    0    0 -4.0168588173e+01 -2.3342921001e+00 -6.1506191652e+02 6.1637661015e+02 5.1100000000e-04 0.0000e+00 -1.0000e+00
  9900012  1    3    3    0    0 +4.0168588173e+01 +2.3342921001e+00 -3.0699374041e+02 3.0962398332e+02 1.7000000000e+00 0.0000e+00 1.0000e+00
<mgrwt>
<rscale>  0 0.85384218E+02</rscale>
<asrwt>0</asrwt>
<pdfrwt beam="2">  1        1 0.13200374E+00 0.85384218E+02</pdfrwt>
<pdfrwt beam="1">  1       -2 0.28178177E-03 0.85384218E+02</pdfrwt>
<totfact> 0.20455806E+05</totfact>
</mgrwt>
</event>
<event>
 5      2 +1.6636760e+00 7.90776500e+01 7.81616400e-03 1.33168900e-01
       -2 -1    0    0    0  501 -0.0000000000e+00 +0.0000000000e+00 +3.0709352314e+01 3.0709352420e+01 2.5500000000e-03 0.0000e+00 1.0000e+00
        1 -1    0    0  501    0 +0.0000000000e+00 -0.0000000000e+00 -5.0906928590e+01 5.0906928839e+01 5.0400000000e-03 0.0000e+00 -1.0000e+00
      -24  2    1    2    0    0 +0.0000000000e+00 +0.0000000000e+00 -2.0197576276e+01 8.1616281259e+01 7.9077653475e+01 0.0000e+00 0.0000e+00
       11  1    3    3    0    0 +3.3878746510e+01 +1.3820999018e+01 -2.5509630903e+01 4.4604156174e+01 5.1100000000e-04 0.0000e+00 -1.0000e+00
  9900012  1    3    3    0    0 -3.3878746510e+01 -1.3820999018e+01 +5.3120546269e+00 3.7012125085e+01 1.7000000000e+00 0.0000e+00 1.0000e+00
<mgrwt>
<rscale>  0 0.79077653E+02</rscale>
<asrwt>0</asrwt>
<pdfrwt beam="2">  1        1 0.72724184E-02 0.79077653E+02</pdfrwt>
<pdfrwt beam="1">  1       -2 0.43870503E-02 0.79077653E+02</pdfrwt>
<totfact> 0.16762897E+05</totfact>
</mgrwt>
</event>
<event>
 5      2 +1.6636760e+00 7.98235700e+01 7.81616400e-03 1.32955300e-01
       -4 -1    0    0    0  501 -0.0000000000e+00 +0.0000000000e+00 +3.8736747239e+00 4.0765495050e+00 1.2700000000e+00 0.0000e+00 1.0000e+00
        1 -1    0    0  501    0 +0.0000000000e+00 -0.0000000000e+00 -4.0062958068e+02 4.0062958072e+02 5.0400000000e-03 0.0000e+00 -1.0000e+00
      -24  2    1    2    0    0 +0.0000000000e+00 +0.0000000000e+00 -3.9675590596e+02 4.0470613022e+02 7.9823573736e+01 0.0000e+00 0.0000e+00
       11  1    3    3    0    0 -8.6221303284e-01 -5.9209874661e+00 -3.9826135183e+02 3.9830629654e+02 5.1100000000e-04 0.0000e+00 -1.0000e+00
  9900012  1    3    3    0    0 +8.6221303284e-01 +5.9209874661e+00 +1.5054458667e+00 6.3998336810e+00 1.7000000000e+00 0.0000e+00 1.0000e+00
<mgrwt>
<rscale>  0 0.79823574E+02</rscale>
<asrwt>0</asrwt>
<pdfrwt beam="2">  1        1 0.57232772E-01 0.79823574E+02</pdfrwt>
<pdfrwt beam="1">  1       -4 0.56801720E-03 0.79823574E+02</pdfrwt>
<totfact> 0.17529180E+05</totfact>
</mgrwt>
</event>
<event>
 5      1 +1.6636760e+00 8.74476200e+01 7.81616400e-03 1.30915300e-01
       -1 -1    0    0    0  501 -0.0000000000e+00 +0.0000000000e+00 +1.9839952367e+00 1.9840016384e+00 5.0400000000e-03 0.0000e+00 1.0000e+00
        2 -1    0    0  501    0 +0.0000000000e+00 -0.0000000000e+00 -9.6359526689e+02 9.6359526689e+02 2.5500000000e-03 0.0000e+00 -1.0000e+00
       24  2    1    2    0    0 +0.0000000000e+00 +0.0000000000e+00 -9.6161127165e+02 9.6557926853e+02 8.7447618879e+01 0.0000e+00 0.0000e+00
      -11  1    3    3    0    0 -2.7301715437e+01 +3.2265069327e+01 -3.5771304151e+02 3.6020138594e+02 5.1100000000e-04 0.0000e+00 1.0000e+00
  9900012  1    3    3    0    0 +2.7301715437e+01 -3.2265069327e+01 -6.0389823014e+02 6.0537788259e+02 1.7000000000e+00 0.0000e+00 -1.0000e+00
<mgrwt>
<rscale>  0 0.87447619E+02</rscale>
<asrwt>0</asrwt>
<pdfrwt beam="2">  1        2 0.13765617E+00 0.87447619E+02</pdfrwt>
<pdfrwt beam="1">  1       -1 0.28342897E-03 0.87447619E+02</pdfrwt>
<totfact> 0.34021993E+05</totfact>
</mgrwt>
</event>
<event>
 5      1 +1.6636760e+00 8.00062200e+01 7.81616400e-03 1.32903400e-01
        2 -1    0    0  501    0 +0.0000000000e+00 +0.0000000000e+00 +1.1068207825e+01 1.1068208119e+01 2.5500000000e-03 0.0000e+00 -1.0000e+00
       -1 -1    0    0    0  501 -0.0000000000e+00 -0.0000000000e+00 -1.4458065142e+02 1.4458065151e+02 5.0400000000e-03 0.0000e+00 1.0000e+00
       24  2    1    2    0    0 +0.0000000000e+00 +0.0000000000e+00 -1.3351244360e+02 1.5564885963e+02 8.0006217937e+01 0.0000e+00 0.0000e+00
      -11  1    3    3    0    0 -6.6555885967e+00 +1.6775743034e+01 -1.3614060264e+02 1.3733166460e+02 5.1100000000e-04 0.0000e+00 1.0000e+00
  9900012  1    3    3    0    0 +6.6555885967e+00 -1.6775743034e+01 +2.6281590416e+00 1.8317195032e+01 1.7000000000e+00 0.0000e+00 -1.0000e+00
<mgrwt>
<rscale>  0 0.80006218E+02</rscale>
<asrwt>0</asrwt>
<pdfrwt beam="1">  1        2 0.15811727E-02 0.80006218E+02</pdfrwt>
<pdfrwt beam="2">  1       -1 0.20654378E-01 0.80006218E+02</pdfrwt>
<totfact> 0.13539744E+05</totfact>
</mgrwt>
</event>
<event>
 5      1 +1.6636760e+00 8.26182900e+01 7.81616400e-03 1.32178100e-01
       -1 -1    0    0    0  501 -0.0000000000e+00 +0.0000000000e+00 +1.8979190489e+00 1.8979257408e+00 5.0400000000e-03 0.0000e+00 1.0000e+00
        2 -1    0    0  501    0 +0.0000000000e+00 -0.0000000000e+00 -8.9911242625e+02 8.9911242625e+02 2.5500000000e-03 0.0000e+00 -1.0000e+00
       24  2    1    2    0    0 +0.0000000000e+00 +0.0000000000e+00 -8.9721450720e+02 9.0101035200e+02 8.2618293791e+01 0.0000e+00 0.0000e+00
      -11  1    3    3    0    0 +1.6278668803e+01 +3.7243739410e+01 -5.2774437804e+02 5.2930730180e+02 5.1100000000e-04 0.0000e+00 1.0000e+00
  9900012  1    3    3    0    0 -1.6278668803e+01 -3.7243739410e+01 -3.6947012916e+02 3.7170305019e+02 1.7000000000e+00 0.0000e+00 -1.0000e+00
<mgrwt>
<rscale>  0 0.82618294E+02</rscale>
<asrwt>0</asrwt>
<pdfrwt beam="2">  1        2 0.12844436E+00 0.82618294E+02</pdfrwt>
<pdfrwt beam="1">  1       -1 0.27113235E-03 0.82618294E+02</pdfrwt>
<totfact> 0.39086915E+05</totfact>
</mgrwt>
</event>
<event>
 5      2 +1.6636760e+00 7.98234900e+01 7.81616400e-03 1.32955300e-01
        1 -1    0    0  501    0 +0.0000000000e+00 +0.0000000000e+00 +3.3066046211e+02 3.3066046214e+02 5.0400000000e-03 0.0000e+00 -1.0000e+00
       -2 -1    0    0    0  501 -0.0000000000e+00 -0.0000000000e+00 -4.8174715571e+00 4.8174722320e+00 2.5500000000e-03 0.0000e+00 1.0000e+00
      -24  2    1    2    0    0 +0.0000000000e+00 +0.0000000000e+00 +3.2584299055e+02 3.3547793438e+02 7.9823492555e+01 0.0000e+00 0.0000e+00
       11  1    3    3    0    0 -3.4002875421e+01 -1.5403799176e+00 +2.5029448415e+02 2.5259829197e+02 5.1100000000e-04 0.0000e+00 -1.0000e+00
  9900012  1    3    3    0    0 +3.4002875421e+01 +1.5403799176e+00 +7.5548506395e+01 8.2879642409e+01 1.7000000000e+00 0.0000e+00 1.0000e+00
<mgrwt>
<rscale>  0 0.79823493E+02</rscale>
<asrwt>0</asrwt>
<pdfrwt beam="1">  1        1 0.47237215E-01 0.79823493E+02</pdfrwt>
<pdfrwt beam="2">  1       -2 0.68821019E-03 0.79823493E+02</pdfrwt>
<totfact> 0.22442437E+05</totfact>
</mgrwt>
</event>
<event>
 5      1 +1.6636760e+00 7.97336900e+01 7.81616400e-03 1.32980900e-01
        2 -1    0    0  501    0 +0.0000000000e+00 +0.0000000000e+00 +3.8649306829e+02 3.8649306830e+02 2.5500000000e-03 0.0000e+00 -1.0000e+00
       -1 -1    0    0    0  501 -0.0000000000e+00 -0.0000000000e+00 -4.1122719342e+00 4.1122750227e+00 5.0400000000e-03 0.0000e+00 1.0000e+00
       24  2    1    2    0    0 +0.0000000000e+00 +0.0000000000e+00 +3.8238079636e+02 3.9060534332e+02 7.9733686791e+01 0.0000e+00 0.0000e+00
      -11  1    3    3    0    0 -1.5941939858e+01 -3.5977288566e+01 +1.6034971316e+02 1.6510766563e+02 5.1100000000e-04 0.0000e+00 1.0000e+00
  9900012  1    3    3    0    0 +1.5941939858e+01 +3.5977288566e+01 +2.2203108319e+02 2.2549767769e+02 1.7000000000e+00 0.0000e+00 -1.0000e+00
<mgrwt>
<rscale>  0 0.79733687E+02</rscale>
<asrwt>0</asrwt>
<pdfrwt beam="1">  1        2 0.55213271E-01 0.79733687E+02</pdfrwt>
<pdfrwt beam="2">  1       -1 0.58746790E-03 0.79733687E+02</pdfrwt>
<totfact> 0.33741782E+05</totfact>
</mgrwt>
</event>
<event>
 5      2 +1.6636760e+00 7.89930700e+01 7.81616400e-03 1.33193300e-01
       -2 -1    0    0    0  501 -0.0000000000e+00 +0.0000000000e+00 +8.4088616075e+00 8.4088619942e+00 2.5500000000e-03 0.0000e+00 1.0000e+00
        1 -1    0    0  501    0 +0.0000000000e+00 -0.0000000000e+00 -1.8551573452e+02 1.8551573459e+02 5.0400000000e-03 0.0000e+00 -1.0000e+00
      -24  2    1    2    0    0 +0.0000000000e+00 +0.0000000000e+00 -1.7710687291e+02 1.9392459658e+02 7.8993067588e+01 0.0000e+00 0.0000e+00
       11  1    3    3    0    0 -2.1486577140e+01 -6.4120849549e+00 -1.6827940562e+02 1.6976674052e+02 5.1100000000e-04 0.0000e+00 -1.0000e+00
  9900012  1    3    3    0    0 +2.1486577140e+01 +6.4120849549e+00 -8.8274672891e+00 2.4157856059e+01 1.7000000000e+00 0.0000e+00 1.0000e+00
<mgrwt>
<rscale>  0 0.78993068E+02</rscale>
<asrwt>0</asrwt>
<pdfrwt beam="2">  1        1 0.26502245E-01 0.78993068E+02</pdfrwt>
<pdfrwt beam="1">  1       -2 0.12012661E-02 0.78993068E+02</pdfrwt>
<totfact> 0.20672726E+05</totfact>
</mgrwt>
</event>
<event>
 5      1 +1.6636760e+00 8.00555500e+01 7.81616400e-03 1.32889400e-01
       -1 -1    0    0    0  501 -0.0000000000e+00 +0.0000000000e+00 +2.8027912786e+01 2.8027913239e+01 5.0400000000e-03 0.0000e+00 1.0000e+00
        2 -1    0    0  501    0 +0.0000000000e+00 -0.0000000000e+00 -5.7165254696e+01 5.7165254753e+01 2.5500000000e-03 0.0000e+00 -1.0000e+00
       24  2    1    2    0    0 +0.0000000000e+00 +0.0000000000e+00 -2.9137341911e+01 8.5193167992e+01 8.0055550581e+01 0.0000e+00 0.0000e+00
      -11  1    3    3    0    0 -1.3767884811e+01 -3.5992864420e+00 +2.5231076427e+01 2.8967511681e+01 5.1100000000e-04 0.0000e+00 1.0000e+00
  9900012  1    3    3    0    0 +1.3767884811e+01 +3.5992864420e+00 -5.4368418337e+01 5.6225656311e+01 1.7000000000e+00 0.0000e+00 -1.0000e+00
<mgrwt>
<rscale>  0 0.80055551E+02</rscale>
<asrwt>0</asrwt>
<pdfrwt beam="2">  1        2 0.81664650E-02 0.80055551E+02</pdfrwt>
<pdfrwt beam="1">  1       -1 0.40039876E-02 0.80055551E+02</pdfrwt>
<totfact> 0.18736697E+05</totfact>
</mgrwt>
</event>
<event>
 5      1 +1.6636760e+00 7.94412200e+01 7.81616400e-03 1.33064500e-01
       -1 -1    0    0    0  501 -0.0000000000e+00 +0.0000000000e+00 +1.9165338439e+00 1.9165404708e+00 5.0400000000e-03 0.0000e+00 1.0000e+00
        2 -1    0    0  501    0 +0.0000000000e+00 -0.0000000000e+00 -8.2321751759e+02 8.2321751759e+02 2.5500000000e-03 0.0000e+00 -1.0000e+00
       24  2    1    2    0    0 +0.0000000000e+00 +0.0000000000e+00 -8.2130098374e+02 8.2513405806e+02 7.9441222775e+01 0.0000e+00 0.0000e+00
      -11  1    3    3    0    0 -2.9646460943e+01 -2.5496777807e+01 -3.3903985197e+02 3.4128729766e+02 5.1100000000e-04 0.0000e+00 1.0000e+00
  9900012  1    3    3    0    0 +2.9646460943e+01 +2.5496777807e+01 -4.8226113178e+02 4.8384676040e+02 1.7000000000e+00 0.0000e+00 -1.0000e+00
<mgrwt>
<rscale>  0 0.79441223E+02</rscale>
<asrwt>0</asrwt>
<pdfrwt beam="2">  1        2 0.11760228E+00 0.79441223E+02</pdfrwt>
<pdfrwt beam="1">  1       -1 0.27379155E-03 0.79441223E+02</pdfrwt>
<totfact> 0.42620053E+05</totfact>
</mgrwt>
</event>
<event>
 5      1 +1.6636760e+00 8.18518800e+01 7.81616400e-03 1.32387700e-01
       -1 -1    0    0    0  501 -0.0000000000e+00 +0.0000000000e+00 +2.0194473478e+00 2.0194536371e+00 5.0400000000e-03 0.0000e+00 1.0000e+00
        2 -1    0    0  501    0 +0.0000000000e+00 -0.0000000000e+00 -8.2940012325e+02 8.2940012326e+02 2.5500000000e-03 0.0000e+00 -1.0000e+00
       24  2    1    2    0    0 +0.0000000000e+00 +0.0000000000e+00 -8.2738067590e+02 8.3141957689e+02 8.1851878300e+01 0.0000e+00 0.0000e+00
      -11  1    3    3    0    0 -2.5613945444e+01 -2.9722751230e+01 -2.9594146707e+02 2.9853118443e+02 5.1100000000e-04 0.0000e+00 1.0000e+00
  9900012  1    3    3    0    0 +2.5613945444e+01 +2.9722751230e+01 -5.3143920883e+02 5.3288839246e+02 1.7000000000e+00 0.0000e+00 -1.0000e+00
<mgrwt>
<rscale>  0 0.81851878E+02</rscale>
<asrwt>0</asrwt>
<pdfrwt beam="2">  1        2 0.11848551E+00 0.81851878E+02</pdfrwt>
<pdfrwt beam="1">  1       -1 0.28849346E-03 0.81851878E+02</pdfrwt>
<totfact> 0.39500622E+05</totfact>
</mgrwt>
</event>
<event>
 5      1 +1.6636760e+00 7.30833000e+01 7.81616400e-03 1.34991100e-01
        2 -1    0    0  501    0 +0.0000000000e+00 +0.0000000000e+00 +7.6013954896e+02 7.6013954897e+02 2.5500000000e-03 0.0000e+00 -1.0000e+00
       -1 -1    0    0    0  501 -0.0000000000e+00 -0.0000000000e+00 -1.7566372195e+00 1.7566444497e+00 5.0400000000e-03 0.0000e+00 1.0000e+00
       24  2    1    2    0    0 +0.0000000000e+00 +0.0000000000e+00 +7.5838291174e+02 7.6189619342e+02 7.3083299862e+01 0.0000e+00 0.0000e+00
      -11  1    3    3    0    0 +1.4837790764e+00 -1.5603292919e+01 +3.5089060840e+01 3.8430541775e+01 5.1100000000e-04 0.0000e+00 1.0000e+00
  9900012  1    3    3    0    0 -1.4837790764e+00 +1.5603292919e+01 +7.2329385090e+02 7.2346565164e+02 1.7000000000e+00 0.0000e+00 -1.0000e+00
<mgrwt>
<rscale>  0 0.73083300E+02</rscale>
<asrwt>0</asrwt>
<pdfrwt beam="1">  1        2 0.10859150E+00 0.73083300E+02</pdfrwt>
<pdfrwt beam="2">  1       -1 0.25094837E-03 0.73083300E+02</pdfrwt>
<totfact> 0.51969443E+05</totfact>
</mgrwt>
</event>
<event>
 5      2 +1.6636760e+00 7.95946000e+01 7.81616400e-03 1.33020600e-01
       -4 -1    0    0    0  501 -0.0000000000e+00 +0.0000000000e+00 +9.6613950180e+00 9.7445088996e+00 1.2700000000e+00 0.0000e+00 1.0000e+00
        3 -1    0    0  501    0 +0.0000000000e+00 -0.0000000000e+00 -1.6318943638e+02 1.6318946764e+02 1.0100000000e-01 0.0000e+00 -1.0000e+00
      -24  2    1    2    0    0 +0.0000000000e+00 +0.0000000000e+00 -1.5352804136e+02 1.7293397654e+02 7.9594602554e+01 0.0000e+00 0.0000e+00
       11  1    3    3    0    0 +3.6458136630e+01 +1.5888020128e+01 -7.4840380891e+01 8.4750855585e+01 5.1100000000e-04 0.0000e+00 -1.0000e+00
  9900012  1    3    3    0    0 -3.6458136630e+01 -1.5888020128e+01 -7.8687660472e+01 8.8183120951e+01 1.7000000000e+00 0.0000e+00 1.0000e+00
<mgrwt>
<rscale>  0 0.79594603E+02</rscale>
<asrwt>0</asrwt>
<pdfrwt beam="2">  1        3 0.23312815E-01 0.79594603E+02</pdfrwt>
<pdfrwt beam="1">  1       -4 0.13864891E-02 0.79594603E+02</pdfrwt>
<totfact> 0.49592948E+04</totfact>
</mgrwt>
</event>
<event>
 5      2 +1.6636760e+00 7.88382400e+01 7.81616400e-03 1.33238100e-01
        1 -1    0    0  501    0 +0.0000000000e+00 +0.0000000000e+00 +1.8400846742e+02 1.8400846749e+02 5.0400000000e-03 0.0000e+00 -1.0000e+00
       -2 -1    0    0    0  501 -0.0000000000e+00 -0.0000000000e+00 -8.4445398075e+00 8.4445401925e+00 2.5500000000e-03 0.0000e+00 1.0000e+00
      -24  2    1    2    0    0 +0.0000000000e+00 +0.0000000000e+00 +1.7556392761e+02 1.9245300768e+02 7.8838236199e+01 0.0000e+00 0.0000e+00
       11  1    3    3    0    0 -3.7488300926e+01 -8.8263655636e+00 +6.7442482822e+01 7.7664444405e+01 5.1100000000e-04 0.0000e+00 -1.0000e+00
  9900012  1    3    3    0    0 +3.7488300926e+01 +8.8263655636e+00 +1.0812144479e+02 1.1478856328e+02 1.7000000000e+00 0.0000e+00 1.0000e+00
<mgrwt>
<rscale>  0 0.78838236E+02</rscale>
<asrwt>0</asrwt>
<pdfrwt beam="1">  1        1 0.26286921E-01 0.78838236E+02</pdfrwt>
<pdfrwt beam="2">  1       -2 0.12063630E-02 0.78838236E+02</pdfrwt>
<totfact> 0.20749096E+05</totfact>
</mgrwt>
</event>
<event>
 5      2 +1.6636760e+00 7.91012100e+01 7.81616400e-03 1.33162200e-01
        1 -1    0    0  501    0 +0.0000000000e+00 +0.0000000000e+00 +9.7648857748e+02 9.7648857749e+02 5.0400000000e-03 0.0000e+00 -1.0000e+00
       -2 -1    0    0    0  501 -0.0000000000e+00 -0.0000000000e+00 -1.6019127936e+00 1.6019148232e+00 2.5500000000e-03 0.0000e+00 1.0000e+00
      -24  2    1    2    0    0 +0.0000000000e+00 +0.0000000000e+00 +9.7488666468e+02 9.7809049231e+02 7.9101214757e+01 0.0000e+00 0.0000e+00
       11  1    3    3    0    0 +6.0335198718e+00 -1.8884478903e+01 +9.1012803008e+02 9.1034392294e+02 5.1100000000e-04 0.0000e+00 -1.0000e+00
  9900012  1    3    3    0    0 -6.0335198718e+00 +1.8884478903e+01 +6.4758634605e+01 6.7746569370e+01 1.7000000000e+00 0.0000e+00 1.0000e+00
<mgrwt>
<rscale>  0 0.79101215E+02</rscale>
<asrwt>0</asrwt>
<pdfrwt beam="1">  1        1 0.13949823E+00 0.79101215E+02</pdfrwt>
<pdfrwt beam="2">  1       -2 0.22884506E-03 0.79101215E+02</pdfrwt>
<totfact> 0.24752448E+05</totfact>
</mgrwt>
</event>
<event>
 5      1 +1.6636760e+00 8.04364100e+01 7.81616400e-03 1.32781800e-01
       -1 -1    0    0    0  501 -0.0000000000e+00 +0.0000000000e+00 +1.0909051467e+02 1.0909051479e+02 5.0400000000e-03 0.0000e+00 1.0000e+00
        2 -1    0    0  501    0 +0.0000000000e+00 -0.0000000000e+00 -1.4827174308e+01 1.4827174527e+01 2.5500000000e-03 0.0000e+00 -1.0000e+00
       24  2    1    2    0    0 +0.0000000000e+00 +0.0000000000e+00 +9.4263340361e+01 1.2391768931e+02 8.0436412081e+01 0.0000e+00 0.0000e+00
      -11  1    3    3    0    0 +2.2519791665e+01 -5.9011233118e+00 +9.7600224959e+01 1.0033826880e+02 5.1100000000e-04 0.0000e+00 1.0000e+00
  9900012  1    3    3    0    0 -2.2519791665e+01 +5.9011233118e+00 -3.3368845982e+00 2.3579420514e+01 1.7000000000e+00 0.0000e+00 -1.0000e+00
<mgrwt>
<rscale>  0 0.80436412E+02</rscale>
<asrwt>0</asrwt>
<pdfrwt beam="2">  1        2 0.21181679E-02 0.80436412E+02</pdfrwt>
<pdfrwt beam="1">  1       -1 0.15584358E-01 0.80436412E+02</pdfrwt>
<totfact> 0.14217296E+05</totfact>
</mgrwt>
</event>
<event>
 5      2 +1.6636760e+00 7.99025600e+01 7.81616400e-03 1.32932800e-01
        1 -1    0    0  501    0 +0.0000000000e+00 +0.0000000000e+00 +1.5333428628e+02 1.5333428636e+02 5.0400000000e-03 0.0000e+00 -1.0000e+00
       -2 -1    0    0    0  501 -0.0000000000e+00 -0.0000000000e+00 -1.0409313945e+01 1.0409314257e+01 2.5500000000e-03 0.0000e+00 1.0000e+00
      -24  2    1    2    0    0 +0.0000000000e+00 +0.0000000000e+00 +1.4292497233e+02 1.6374360062e+02 7.9902559576e+01 0.0000e+00 0.0000e+00
       11  1    3    3    0    0 +3.2049403077e+01 -1.9084016350e+01 +1.0064933208e+02 1.0733895829e+02 5.1100000000e-04 0.0000e+00 -1.0000e+00
  9900012  1    3    3    0    0 -3.2049403077e+01 +1.9084016350e+01 +4.2275640252e+01 5.6404642330e+01 1.7000000000e+00 0.0000e+00 1.0000e+00
<mgrwt>
<rscale>  0 0.79902560E+02</rscale>
<asrwt>0</asrwt>
<pdfrwt beam="1">  1        1 0.21904896E-01 0.79902560E+02</pdfrwt>
<pdfrwt beam="2">  1       -2 0.14870450E-02 0.79902560E+02</pdfrwt>
<totfact> 0.19374253E+05</totfact>
</mgrwt>
</event>
<event>
 5      2 +1.6636760e+00 8.06061000e+01 7.81616400e-03 1.32734000e-01
       -2 -1    0    0    0  501 -0.0000000000e+00 +0.0000000000e+00 +6.6780652413e+02 6.6780652414e+02 2.5500000000e-03 0.0000e+00 1.0000e+00
        1 -1    0    0  501    0 +0.0000000000e+00 -0.0000000000e+00 -2.4323420960e+00 2.4323473177e+00 5.0400000000e-03 0.0000e+00 -1.0000e+00
      -24  2    1    2    0    0 +0.0000000000e+00 +0.0000000000e+00 +6.6537418204e+02 6.7023887146e+02 8.0606095853e+01 0.0000e+00 0.0000e+00
       11  1    3    3    0    0 +1.1625984047e+01 -2.9188145187e+01 +1.2287937268e+02 1.2683237582e+02 5.1100000000e-04 0.0000e+00 -1.0000e+00
  9900012  1    3    3    0    0 -1.1625984047e+01 +2.9188145187e+01 +5.4249480935e+02 5.4340649564e+02 1.7000000000e+00 0.0000e+00 1.0000e+00
<mgrwt>
<rscale>  0 0.80606096E+02</rscale>
<asrwt>0</asrwt>
<pdfrwt beam="2">  1        1 0.34747737E-03 0.80606096E+02</pdfrwt>
<pdfrwt beam="1">  1       -2 0.95401054E-01 0.80606096E+02</pdfrwt>
<totfact> 0.50834116E+04</totfact>
</mgrwt>
</event>
<event>
 5      2 +1.6636760e+00 7.88109200e+01 7.81616400e-03 1.33246000e-01
       -2 -1    0    0    0  501 -0.0000000000e+00 +0.0000000000e+00 +9.9857712070e+00 9.9857715326e+00 2.5500000000e-03 0.0000e+00 1.0000e+00
        1 -1    0    0  501    0 +0.0000000000e+00 -0.0000000000e+00 -1.5550028084e+02 1.5550028093e+02 5.0400000000e-03 0.0000e+00 -1.0000e+00
      -24  2    1    2    0    0 +0.0000000000e+00 +0.0000000000e+00 -1.4551450964e+02 1.6548605246e+02 7.8810919569e+01 0.0000e+00 0.0000e+00
       11  1    3    3    0    0 -1.4194954381e+00 +8.3661471242e-01 -1.5535552897e+02 1.5536426640e+02 5.1100000000e-04 0.0000e+00 -1.0000e+00
  9900012  1    3    3    0    0 +1.4194954381e+00 -8.3661471242e-01 +9.8410193347e+00 1.0121786059e+01 1.7000000000e+00 0.0000e+00 1.0000e+00
<mgrwt>
<rscale>  0 0.78810920E+02</rscale>
<asrwt>0</asrwt>
<pdfrwt beam="2">  1        1 0.22214324E-01 0.78810920E+02</pdfrwt>
<pdfrwt beam="1">  1       -2 0.14265389E-02 0.78810920E+02</pdfrwt>
<totfact> 0.20145648E+05</totfact>
</mgrwt>
</event>
<event>
 5      1 +1.6636760e+00 7.82309600e+01 7.81616400e-03 1.33414800e-01
       -1 -1    0    0    0  501 -0.0000000000e+00 +0.0000000000e+00 +1.3252896366e+00 1.3252992200e+00 5.0400000000e-03 0.0000e+00 1.0000e+00
        2 -1    0    0  501    0 +0.0000000000e+00 -0.0000000000e+00 -1.1544761629e+03 1.1544761629e+03 2.5500000000e-03 0.0000e+00 -1.0000e+00
       24  2    1    2    0    0 +0.0000000000e+00 +0.0000000000e+00 -1.1531508733e+03 1.1558014621e+03 7.8230961499e+01 0.0000e+00 0.0000e+00
      -11  1    3    3    0    0 +3.8990685300e+01 -2.6875511533e+00 -5.6095145312e+02 5.6231132768e+02 5.1100000000e-04 0.0000e+00 1.0000e+00
  9900012  1    3    3    0    0 -3.8990685300e+01 +2.6875511533e+00 -5.9219942013e+02 5.9349013444e+02 1.7000000000e+00 0.0000e+00 -1.0000e+00
<mgrwt>
<rscale>  0 0.78230961E+02</rscale>
<asrwt>0</asrwt>
<pdfrwt beam="2">  1        2 0.16492452E+00 0.78230961E+02</pdfrwt>
<pdfrwt beam="1">  1       -1 0.18932852E-03 0.78230961E+02</pdfrwt>
<totfact> 0.45856550E+05</totfact>
</mgrwt>
</event>
<event>
 5      2 +1.6636760e+00 8.90993600e+01 7.81616400e-03 1.30504700e-01
       -2 -1    0    0    0  501 -0.0000000000e+00 +0.0000000000e+00 +5.1587648188e+01 5.1587648251e+01 2.5500000000e-03 0.0000e+00 1.0000e+00
        1 -1    0    0  501    0 +0.0000000000e+00 -0.0000000000e+00 -3.8471885172e+01 3.8471885502e+01 5.0400000000e-03 0.0000e+00 -1.0000e+00
      -24  2    1    2    0    0 +0.0000000000e+00 +0.0000000000e+00 +1.3115763016e+01 9.0059533753e+01 8.9099362401e+01 0.0000e+00 0.0000e+00
       11  1    3    3    0    0 -2.4196340402e+01 -1.5148850675e+00 -3.1203081016e+01 3.9514428134e+01 5.1100000000e-04 0.0000e+00 -1.0000e+00
  9900012  1    3    3    0    0 +2.4196340402e+01 +1.5148850675e+00 +4.4318844033e+01 5.0545105619e+01 1.7000000000e+00 0.0000e+00 1.0000e+00
<mgrwt>
<rscale>  0 0.89099362E+02</rscale>
<asrwt>0</asrwt>
<pdfrwt beam="2">  1        1 0.54959836E-02 0.89099362E+02</pdfrwt>
<pdfrwt beam="1">  1       -2 0.73696641E-02 0.89099362E+02</pdfrwt>
<totfact> 0.11471504E+05</totfact>
</mgrwt>
</event>
<event>
 5      2 +1.6636760e+00 7.84365200e+01 7.81616400e-03 1.33354800e-01
        1 -1    0    0  501    0 +0.0000000000e+00 +0.0000000000e+00 +4.6145296347e+00 4.6145323870e+00 5.0400000000e-03 0.0000e+00 -1.0000e+00
       -2 -1    0    0    0  501 -0.0000000000e+00 -0.0000000000e+00 -3.3331054388e+02 3.3331054388e+02 2.5500000000e-03 0.0000e+00 1.0000e+00
      -24  2    1    2    0    0 +0.0000000000e+00 +0.0000000000e+00 -3.2869601424e+02 3.3792507627e+02 7.8436518254e+01 0.0000e+00 0.0000e+00
       11  1    3    3    0    0 +3.7994561487e+01 -9.5510050292e+00 -1.7008103425e+02 1.7453471464e+02 5.1100000000e-04 0.0000e+00 -1.0000e+00
  9900012  1    3    3    0    0 -3.7994561487e+01 +9.5510050292e+00 -1.5861497999e+02 1.6339036164e+02 1.7000000000e+00 0.0000e+00 1.0000e+00
<mgrwt>
<rscale>  0 0.78436518E+02</rscale>
<asrwt>0</asrwt>
<pdfrwt beam="1">  1        1 0.65921893E-03 0.78436518E+02</pdfrwt>
<pdfrwt beam="2">  1       -2 0.47615777E-01 0.78436518E+02</pdfrwt>
<totfact> 0.89188527E+04</totfact>
</mgrwt>
</event>
<event>
 5      1 +1.6636760e+00 8.04829200e+01 7.81616400e-03 1.32768700e-01
       -1 -1    0    0    0  501 -0.0000000000e+00 +0.0000000000e+00 +1.4469215722e+00 1.4469303500e+00 5.0400000000e-03 0.0000e+00 1.0000e+00
        2 -1    0    0  501    0 +0.0000000000e+00 -0.0000000000e+00 -1.1191829716e+03 1.1191829716e+03 2.5500000000e-03 0.0000e+00 -1.0000e+00
       24  2    1    2    0    0 +0.0000000000e+00 +0.0000000000e+00 -1.1177360500e+03 1.1206299019e+03 8.0482915074e+01 0.0000e+00 0.0000e+00
      -11  1    3    3    0    0 -1.2344197209e+01 -1.2896853986e+01 -5.6738296636e+01 5.9480604846e+01 5.1100000000e-04 0.0000e+00 1.0000e+00
  9900012  1    3    3    0    0 +1.2344197209e+01 +1.2896853986e+01 -1.0609977533e+03 1.0611492971e+03 1.7000000000e+00 0.0000e+00 -1.0000e+00
<mgrwt>
<rscale>  0 0.80482915E+02</rscale>
<asrwt>0</asrwt>
<pdfrwt beam="2">  1        2 0.15988273E+00 0.80482915E+02</pdfrwt>
<pdfrwt beam="1">  1       -1 0.20670443E-03 0.80482915E+02</pdfrwt>
<totfact> 0.42615547E+05</totfact>
</mgrwt>
</event>
<event>
 5      2 +1.6636760e+00 7.92118400e+01 7.81616400e-03 1.33130300e-01
        1 -1    0    0  501    0 +0.0000000000e+00 +0.0000000000e+00 +9.7343611791e+02 9.7343611792e+02 5.0400000000e-03 0.0000e+00 -1.0000e+00
       -4 -1    0    0    0  501 -0.0000000000e+00 -0.0000000000e+00 -1.3607291589e+00 1.8613123982e+00 1.2700000000e+00 0.0000e+00 1.0000e+00
      -24  2    1    2    0    0 +0.0000000000e+00 +0.0000000000e+00 +9.7207538875e+02 9.7529743032e+02 7.9211843657e+01 0.0000e+00 0.0000e+00
       11  1    3    3    0    0 +3.0692976615e+01 +1.2005388422e+01 +7.5584741630e+02 7.5656559854e+02 5.1100000000e-04 0.0000e+00 -1.0000e+00
  9900012  1    3    3    0    0 -3.0692976615e+01 -1.2005388422e+01 +2.1622797245e+02 2.1873183178e+02 1.7000000000e+00 0.0000e+00 1.0000e+00
<mgrwt>
<rscale>  0 0.79211844E+02</rscale>
<asrwt>0</asrwt>
<pdfrwt beam="1">  1        1 0.13906328E+00 0.79211844E+02</pdfrwt>
<pdfrwt beam="2">  1       -4 0.23020338E-03 0.79211844E+02</pdfrwt>
<totfact> 0.19676043E+05</totfact>
</mgrwt>
</event>
<event>
 5      1 +1.6636760e+00 6.48983000e+01 7.81616400e-03 1.37835400e-01
       -1 -1    0    0    0  501 -0.0000000000e+00 +0.0000000000e+00 +3.3424213129e-01 3.3428012793e-01 5.0400000000e-03 0.0000e+00 1.0000e+00
        2 -1    0    0  501    0 +0.0000000000e+00 -0.0000000000e+00 -3.1500742223e+03 3.1500742223e+03 2.5500000000e-03 0.0000e+00 -1.0000e+00
       24  2    1    2    0    0 +0.0000000000e+00 +0.0000000000e+00 -3.1497399802e+03 3.1504085025e+03 6.4898301238e+01 0.0000e+00 0.0000e+00
      -11  1    3    3    0    0 -2.3506884506e+01 -1.0472018550e+01 -6.1602908178e+02 6.1656635198e+02 5.1100000000e-04 0.0000e+00 1.0000e+00
  9900012  1    3    3    0    0 +2.3506884506e+01 +1.0472018550e+01 -2.5337108984e+03 2.5338421505e+03 1.7000000000e+00 0.0000e+00 -1.0000e+00
<mgrwt>
<rscale>  0 0.64898301E+02</rscale>
<asrwt>0</asrwt>
<pdfrwt beam="2">  1        2 0.44999157E+00 0.64898301E+02</pdfrwt>
<pdfrwt beam="1">  1       -1 0.47753610E-04 0.64898301E+02</pdfrwt>
<totfact> 0.32434551E+05</totfact>
</mgrwt>
</event>
<event>
 5      1 +1.6636760e+00 8.76720700e+01 7.81616400e-03 1.30858900e-01
       -1 -1    0    0    0  501 -0.0000000000e+00 +0.0000000000e+00 +1.3193429256e+00 1.3193525522e+00 5.0400000000e-03 0.0000e+00 1.0000e+00
        2 -1    0    0  501    0 +0.0000000000e+00 -0.0000000000e+00 -1.4564757605e+03 1.4564757605e+03 2.5500000000e-03 0.0000e+00 -1.0000e+00
       24  2    1    2    0    0 +0.0000000000e+00 +0.0000000000e+00 -1.4551564176e+03 1.4577951131e+03 8.7672071022e+01 0.0000e+00 0.0000e+00
      -11  1    3    3    0    0 +4.0042640323e+01 -1.6781524256e+01 -8.2584558377e+02 8.2698607052e+02 5.1100000000e-04 0.0000e+00 1.0000e+00
  9900012  1    3    3    0    0 -4.0042640323e+01 +1.6781524256e+01 -6.2931083383e+02 6.3080904256e+02 1.7000000000e+00 0.0000e+00 -1.0000e+00
<mgrwt>
<rscale>  0 0.87672071E+02</rscale>
<asrwt>0</asrwt>
<pdfrwt beam="2">  1        2 0.20806694E+00 0.87672071E+02</pdfrwt>
<pdfrwt beam="1">  1       -1 0.18847918E-03 0.87672071E+02</pdfrwt>
<totfact> 0.33177950E+05</totfact>
</mgrwt>
</event>
<event>
 5      2 +1.6636760e+00 8.78513600e+01 7.81616400e-03 1.30814000e-01
        3 -1    0    0  501    0 +0.0000000000e+00 +0.0000000000e+00 +6.7324256032e+01 6.7324331793e+01 1.0100000000e-01 0.0000e+00 -1.0000e+00
       -4 -1    0    0    0  501 -0.0000000000e+00 -0.0000000000e+00 -2.8639173381e+01 2.8667318534e+01 1.2700000000e+00 0.0000e+00 1.0000e+00
      -24  2    1    2    0    0 +0.0000000000e+00 +0.0000000000e+00 +3.8685082652e+01 9.5991650327e+01 8.7851359197e+01 0.0000e+00 0.0000e+00
       11  1    3    3    0    0 +1.9240352465e+01 -3.6879420505e+01 +3.4700200548e+01 5.4169980045e+01 5.1100000000e-04 0.0000e+00 -1.0000e+00
  9900012  1    3    3    0    0 -1.9240352465e+01 +3.6879420505e+01 +3.9848821037e+00 4.1821670282e+01 1.7000000000e+00 0.0000e+00 1.0000e+00
<mgrwt>
<rscale>  0 0.87851359E+02</rscale>
<asrwt>0</asrwt>
<pdfrwt beam="1">  1        3 0.96177695E-02 0.87851359E+02</pdfrwt>
<pdfrwt beam="2">  1       -4 0.40941762E-02 0.87851359E+02</pdfrwt>
<totfact> 0.43420665E+04</totfact>
</mgrwt>
</event>
<event>
 5      1 +1.6636760e+00 4.90071100e+01 7.81616400e-03 1.45077200e-01
        2 -1    0    0  501    0 +0.0000000000e+00 +0.0000000000e+00 +3.8629786000e+01 3.8629786084e+01 2.5500000000e-03 0.0000e+00 -1.0000e+00
       -1 -1    0    0    0  501 -0.0000000000e+00 -0.0000000000e+00 -1.5543035381e+01 1.5543036198e+01 5.0400000000e-03 0.0000e+00 1.0000e+00
       24  2    1    2    0    0 +0.0000000000e+00 +0.0000000000e+00 +2.3086750619e+01 5.4172822282e+01 4.9007107850e+01 0.0000e+00 0.0000e+00
      -11  1    3    3    0    0 -1.9361748611e+01 +6.5912671616e+00 -3.3281909642e+00 2.0721944104e+01 5.1100000000e-04 0.0000e+00 1.0000e+00
  9900012  1    3    3    0    0 +1.9361748611e+01 -6.5912671616e+00 +2.6414941583e+01 3.3450878178e+01 1.7000000000e+00 0.0000e+00 -1.0000e+00
<mgrwt>
<rscale>  0 0.49007108E+02</rscale>
<asrwt>0</asrwt>
<pdfrwt beam="1">  1        2 0.55185410E-02 0.49007108E+02</pdfrwt>
<pdfrwt beam="2">  1       -1 0.22204337E-02 0.49007108E+02</pdfrwt>
<totfact> 0.63514639E+05</totfact>
</mgrwt>
</event>
<event>
 5      2 +1.6636760e+00 7.95355400e+01 7.81616400e-03 1.33037500e-01
       -2 -1    0    0    0  501 -0.0000000000e+00 +0.0000000000e+00 +1.2402068490e+01 1.2402068752e+01 2.5500000000e-03 0.0000e+00 1.0000e+00
        1 -1    0    0  501    0 +0.0000000000e+00 -0.0000000000e+00 -1.2751707849e+02 1.2751707859e+02 5.0400000000e-03 0.0000e+00 -1.0000e+00
      -24  2    1    2    0    0 +0.0000000000e+00 +0.0000000000e+00 -1.1511501000e+02 1.3991914734e+02 7.9535540894e+01 0.0000e+00 0.0000e+00
       11  1    3    3    0    0 -3.1885941963e+01 -1.1166650087e+01 -9.4374793959e+01 1.0023975810e+02 5.1100000000e-04 0.0000e+00 -1.0000e+00
  9900012  1    3    3    0    0 +3.1885941963e+01 +1.1166650087e+01 -2.0740216039e+01 3.9679389239e+01 1.7000000000e+00 0.0000e+00 1.0000e+00
<mgrwt>
<rscale>  0 0.79535541E+02</rscale>
<asrwt>0</asrwt>
<pdfrwt beam="2">  1        1 0.18216725E-01 0.79535541E+02</pdfrwt>
<pdfrwt beam="1">  1       -2 0.17717242E-02 0.79535541E+02</pdfrwt>
<totfact> 0.18995832E+05</totfact>
</mgrwt>
</event>
<event>
 5      1 +1.6636760e+00 8.17517700e+01 7.81616400e-03 1.32415200e-01
        2 -1    0    0  501    0 +0.0000000000e+00 +0.0000000000e+00 +7.9240043424e+02 7.9240043424e+02 2.5500000000e-03 0.0000e+00 -1.0000e+00
       -1 -1    0    0    0  501 -0.0000000000e+00 -0.0000000000e+00 -2.1085749669e+00 2.1085809903e+00 5.0400000000e-03 0.0000e+00 1.0000e+00
       24  2    1    2    0    0 +0.0000000000e+00 +0.0000000000e+00 +7.9029185927e+02 7.9450901523e+02 8.1751773408e+01 0.0000e+00 0.0000e+00
      -11  1    3    3    0    0 -1.0102467391e+01 -1.0335836926e+00 +1.0352896686e+01 1.4502089942e+01 5.1100000000e-04 0.0000e+00 1.0000e+00
  9900012  1    3    3    0    0 +1.0102467391e+01 +1.0335836926e+00 +7.7993896259e+02 7.8000692529e+02 1.7000000000e+00 0.0000e+00 -1.0000e+00
<mgrwt>
<rscale>  0 0.81751773E+02</rscale>
<asrwt>0</asrwt>
<pdfrwt beam="1">  1        2 0.11319981E+00 0.81751773E+02</pdfrwt>
<pdfrwt beam="2">  1       -1 0.30122609E-03 0.81751773E+02</pdfrwt>
<totfact> 0.39269849E+05</totfact>
</mgrwt>
</event>
<event>
 5      2 +1.6636760e+00 8.14452300e+01 7.81616400e-03 1.32499900e-01
       -4 -1    0    0    0  501 -0.0000000000e+00 +0.0000000000e+00 +2.8818183298e+02 2.8818463137e+02 1.2700000000e+00 0.0000e+00 1.0000e+00
        3 -1    0    0  501    0 +0.0000000000e+00 -0.0000000000e+00 -5.7525827482e+00 5.7534693251e+00 1.0100000000e-01 0.0000e+00 -1.0000e+00
      -24  2    1    2    0    0 +0.0000000000e+00 +0.0000000000e+00 +2.8242925023e+02 2.9393810070e+02 8.1445231018e+01 0.0000e+00 0.0000e+00
       11  1    3    3    0    0 -1.9015370228e+01 +2.1207636931e+01 +3.6209265349e+01 4.6070153749e+01 5.1100000000e-04 0.0000e+00 -1.0000e+00
  9900012  1    3    3    0    0 +1.9015370228e+01 -2.1207636931e+01 +2.4621998488e+02 2.4786794695e+02 1.7000000000e+00 0.0000e+00 1.0000e+00
<mgrwt>
<rscale>  0 0.81445231E+02</rscale>
<asrwt>0</asrwt>
<pdfrwt beam="2">  1        3 0.82186221E-03 0.81445231E+02</pdfrwt>
<pdfrwt beam="1">  1       -4 0.41179042E-01 0.81445231E+02</pdfrwt>
<totfact> 0.34404060E+04</totfact>
</mgrwt>
</event>
<event>
 5      1 +1.6636760e+00 8.65826600e+01 7.81616400e-03 1.31134500e-01
       -3 -1    0    0    0  501 -0.0000000000e+00 +0.0000000000e+00 +1.0444972276e+00 1.0493690763e+00 1.0100000000e-01 0.0000e+00 1.0000e+00
        2 -1    0    0  501    0 +0.0000000000e+00 -0.0000000000e+00 -1.7901208529e+03 1.7901208529e+03 2.5500000000e-03 0.0000e+00 -1.0000e+00
       24  2    1    2    0    0 +0.0000000000e+00 +0.0000000000e+00 -1.7890763557e+03 1.7911702220e+03 8.6582663825e+01 0.0000e+00 0.0000e+00
      -11  1    3    3    0    0 +3.5414228437e+00 +8.5196599229e+00 -1.9537376784e+01 2.1606373430e+01 5.1100000000e-04 0.0000e+00 1.0000e+00
  9900012  1    3    3    0    0 -3.5414228437e+00 -8.5196599229e+00 -1.7695389789e+03 1.7695638485e+03 1.7000000000e+00 0.0000e+00 -1.0000e+00
<mgrwt>
<rscale>  0 0.86582664E+02</rscale>
<asrwt>0</asrwt>
<pdfrwt beam="2">  1        2 0.25572959E+00 0.86582664E+02</pdfrwt>
<pdfrwt beam="1">  1       -3 0.14956323E-03 0.86582664E+02</pdfrwt>
<totfact> 0.28167457E+05</totfact>
</mgrwt>
</event>
<event>
 5      1 +1.6636760e+00 7.84004500e+01 7.81616400e-03 1.33365300e-01
        2 -1    0    0  501    0 +0.0000000000e+00 +0.0000000000e+00 +3.2966378770e+00 3.2966388633e+00 2.5500000000e-03 0.0000e+00 -1.0000e+00
       -1 -1    0    0    0  501 -0.0000000000e+00 -0.0000000000e+00 -4.6612868795e+02 4.6612868798e+02 5.0400000000e-03 0.0000e+00 1.0000e+00
       24  2    1    2    0    0 +0.0000000000e+00 +0.0000000000e+00 -4.6283205008e+02 4.6942532684e+02 7.8400452197e+01 0.0000e+00 0.0000e+00
      -11  1    3    3    0    0 +2.8434053097e+01 +7.7049345284e+00 -3.8598407150e+02 3.8710665823e+02 5.1100000000e-04 0.0000e+00 1.0000e+00
  9900012  1    3    3    0    0 -2.8434053097e+01 -7.7049345284e+00 -7.6847978573e+01 8.2318668614e+01 1.7000000000e+00 0.0000e+00 -1.0000e+00
<mgrwt>
<rscale>  0 0.78400452E+02</rscale>
<asrwt>0</asrwt>
<pdfrwt beam="1">  1        2 0.47094864E-03 0.78400452E+02</pdfrwt>
<pdfrwt beam="2">  1       -1 0.66589771E-01 0.78400452E+02</pdfrwt>
<totfact> 0.93814907E+04</totfact>
</mgrwt>
</event>
<event>
 5      1 +1.6636760e+00 8.07123300e+01 7.81616400e-03 1.32704200e-01
        2 -1    0    0  501    0 +0.0000000000e+00 +0.0000000000e+00 +1.2497550006e+03 1.2497550006e+03 2.5500000000e-03 0.0000e+00 -1.0000e+00
       -1 -1    0    0    0  501 -0.0000000000e+00 -0.0000000000e+00 -1.3031465545e+00 1.3031563007e+00 5.0400000000e-03 0.0000e+00 1.0000e+00
       24  2    1    2    0    0 +0.0000000000e+00 +0.0000000000e+00 +1.2484518541e+03 1.2510581569e+03 8.0712329200e+01 0.0000e+00 0.0000e+00
      -11  1    3    3    0    0 -1.9559777499e+01 -1.6857915975e+01 +1.4359219997e+02 1.4589549040e+02 5.1100000000e-04 0.0000e+00 1.0000e+00
  9900012  1    3    3    0    0 +1.9559777499e+01 +1.6857915975e+01 +1.1048596541e+03 1.1051626665e+03 1.7000000000e+00 0.0000e+00 -1.0000e+00
<mgrwt>
<rscale>  0 0.80712329E+02</rscale>
<asrwt>0</asrwt>
<pdfrwt beam="1">  1        2 0.17853566E+00 0.80712329E+02</pdfrwt>
<pdfrwt beam="2">  1       -1 0.18616529E-03 0.80712329E+02</pdfrwt>
<totfact> 0.42147702E+05</totfact>
</mgrwt>
</event>
<event>
 5      1 +1.6636760e+00 6.89973600e+01 7.81616400e-03 1.36353600e-01
        2 -1    0    0  501    0 +0.0000000000e+00 +0.0000000000e+00 +1.0423328643e+02 1.0423328646e+02 2.5500000000e-03 0.0000e+00 -1.0000e+00
       -1 -1    0    0    0  501 -0.0000000000e+00 -0.0000000000e+00 -1.1418223239e+01 1.1418224352e+01 5.0400000000e-03 0.0000e+00 1.0000e+00
       24  2    1    2    0    0 +0.0000000000e+00 +0.0000000000e+00 +9.2815063194e+01 1.1565151082e+02 6.8997362257e+01 0.0000e+00 0.0000e+00
      -11  1    3    3    0    0 -2.6768661750e+01 -2.8705736151e+00 +1.0276874826e+01 2.8816932543e+01 5.1100000000e-04 0.0000e+00 1.0000e+00
  9900012  1    3    3    0    0 +2.6768661750e+01 +2.8705736151e+00 +8.2538188368e+01 8.6834578273e+01 1.7000000000e+00 0.0000e+00 -1.0000e+00
<mgrwt>
<rscale>  0 0.68997362E+02</rscale>
<asrwt>0</asrwt>
<pdfrwt beam="1">  1        2 0.14890470E-01 0.68997362E+02</pdfrwt>
<pdfrwt beam="2">  1       -1 0.16311748E-02 0.68997362E+02</pdfrwt>
<totfact> 0.32070812E+05</totfact>
</mgrwt>
</event>
<event>
 5      2 +1.6636760e+00 8.07317900e+01 7.81616400e-03 1.32698700e-01
        1 -1    0    0  501    0 +0.0000000000e+00 +0.0000000000e+00 +2.0971733372e+02 2.0971733378e+02 5.0400000000e-03 0.0000e+00 -1.0000e+00
       -2 -1    0    0    0  501 -0.0000000000e+00 -0.0000000000e+00 -7.7695311247e+00 7.7695315432e+00 2.5500000000e-03 0.0000e+00 1.0000e+00
      -24  2    1    2    0    0 +0.0000000000e+00 +0.0000000000e+00 +2.0194780260e+02 2.1748686533e+02 8.0731788134e+01 0.0000e+00 0.0000e+00
       11  1    3    3    0    0 +1.2880416429e+01 -1.9193713607e+01 +1.9001914096e+02 1.9141989891e+02 5.1100000000e-04 0.0000e+00 -1.0000e+00
  9900012  1    3    3    0    0 -1.2880416429e+01 +1.9193713607e+01 +1.1928661639e+01 2.6066966412e+01 1.7000000000e+00 0.0000e+00 1.0000e+00
<mgrwt>
<rscale>  0 0.80731788E+02</rscale>
<asrwt>0</asrwt>
<pdfrwt beam="1">  1        1 0.29959616E-01 0.80731788E+02</pdfrwt>
<pdfrwt beam="2">  1       -2 0.11099332E-02 0.80731788E+02</pdfrwt>
<totfact> 0.19970170E+05</totfact>
</mgrwt>
</event>
</LesHouchesEvents>
